 Entering Gaussian System, Link 0=g16
 Initial command:
 /opt/rit/el9/20230413/app/linux-rhel9-x86_64_v3/gcc-11.2.1/gaussian-16-C.01-3yzt2xlc3n3d45c3wnnzh2wvb3eacy2v/g16/l1.exe "/work/ratul1/hannah/bcb_class/BCB546_Spring2025/assignments/Final_Project/Gau-3064073.inp" -scrdir="/work/ratul1/hannah/bcb_class/BCB546_Spring2025/assignments/Final_Project/"
 Entering Link 1 = /opt/rit/el9/20230413/app/linux-rhel9-x86_64_v3/gcc-11.2.1/gaussian-16-C.01-3yzt2xlc3n3d45c3wnnzh2wvb3eacy2v/g16/l1.exe PID=   3064074.
  
 Copyright (c) 1988-2019, Gaussian, Inc.  All Rights Reserved.
  
 This is part of the Gaussian(R) 16 program.  It is based on
 the Gaussian(R) 09 system (copyright 2009, Gaussian, Inc.),
 the Gaussian(R) 03 system (copyright 2003, Gaussian, Inc.),
 the Gaussian(R) 98 system (copyright 1998, Gaussian, Inc.),
 the Gaussian(R) 94 system (copyright 1995, Gaussian, Inc.),
 the Gaussian 92(TM) system (copyright 1992, Gaussian, Inc.),
 the Gaussian 90(TM) system (copyright 1990, Gaussian, Inc.),
 the Gaussian 88(TM) system (copyright 1988, Gaussian, Inc.),
 the Gaussian 86(TM) system (copyright 1986, Carnegie Mellon
 University), and the Gaussian 82(TM) system (copyright 1983,
 Carnegie Mellon University). Gaussian is a federally registered
 trademark of Gaussian, Inc.
  
 This software contains proprietary and confidential information,
 including trade secrets, belonging to Gaussian, Inc.
  
 This software is provided under written license and may be
 used, copied, transmitted, or stored only in accord with that
 written license.
  
 The following legend is applicable only to US Government
 contracts under FAR:
  
                    RESTRICTED RIGHTS LEGEND
  
 Use, reproduction and disclosure by the US Government is
 subject to restrictions as set forth in subparagraphs (a)
 and (c) of the Commercial Computer Software - Restricted
 Rights clause in FAR 52.227-19.
  
 Gaussian, Inc.
 340 Quinnipiac St., Bldg. 40, Wallingford CT 06492
  
  
 ---------------------------------------------------------------
 Warning -- This program may not be used in any manner that
 competes with the business of Gaussian, Inc. or will provide
 assistance to any competitor of Gaussian, Inc.  The licensee
 of this program is prohibited from giving any competitor of
 Gaussian, Inc. access to this program.  By using this program,
 the user acknowledges that Gaussian, Inc. is engaged in the
 business of creating and licensing software in the field of
 computational chemistry and represents and warrants to the
 licensee that it is not a competitor of Gaussian, Inc. and that
 it will not use this program in any manner prohibited above.
 ---------------------------------------------------------------
  

 Cite this work as:
 Gaussian 16, Revision C.01,
 M. J. Frisch, G. W. Trucks, H. B. Schlegel, G. E. Scuseria, 
 M. A. Robb, J. R. Cheeseman, G. Scalmani, V. Barone, 
 G. A. Petersson, H. Nakatsuji, X. Li, M. Caricato, A. V. Marenich, 
 J. Bloino, B. G. Janesko, R. Gomperts, B. Mennucci, H. P. Hratchian, 
 J. V. Ortiz, A. F. Izmaylov, J. L. Sonnenberg, D. Williams-Young, 
 F. Ding, F. Lipparini, F. Egidi, J. Goings, B. Peng, A. Petrone, 
 T. Henderson, D. Ranasinghe, V. G. Zakrzewski, J. Gao, N. Rega, 
 G. Zheng, W. Liang, M. Hada, M. Ehara, K. Toyota, R. Fukuda, 
 J. Hasegawa, M. Ishida, T. Nakajima, Y. Honda, O. Kitao, H. Nakai, 
 T. Vreven, K. Throssell, J. A. Montgomery, Jr., J. E. Peralta, 
 F. Ogliaro, M. J. Bearpark, J. J. Heyd, E. N. Brothers, K. N. Kudin, 
 V. N. Staroverov, T. A. Keith, R. Kobayashi, J. Normand, 
 K. Raghavachari, A. P. Rendell, J. C. Burant, S. S. Iyengar, 
 J. Tomasi, M. Cossi, J. M. Millam, M. Klene, C. Adamo, R. Cammi, 
 J. W. Ochterski, R. L. Martin, K. Morokuma, O. Farkas, 
 J. B. Foresman, and D. J. Fox, Gaussian, Inc., Wallingford CT, 2019.
 
 ******************************************
 Gaussian 16:  ES64L-G16RevC.01  3-Jul-2019
                 2-Apr-2025 
 ******************************************
 %chk=carbazole_compound.chk
 %Mem=8000MB
 %NProcShared=4
 Will use up to    4 processors via shared memory.
 ------------------
 #p B3LYP/6-31G Opt
 ------------------
 1/18=20,19=15,26=3,38=1/1,3;
 2/9=110,12=2,17=6,18=5,40=1/2;
 3/5=1,6=6,11=2,25=1,30=1,71=1,74=-5/1,2,3;
 4//1;
 5/5=2,38=5/2;
 6/7=2,8=2,9=2,10=2,28=1/1;
 7//1,2,3,16;
 1/18=20,19=15,26=3/3(2);
 2/9=110/2;
 99//99;
 2/9=110/2;
 3/5=1,6=6,11=2,25=1,30=1,71=1,74=-5/1,2,3;
 4/5=5,16=3,69=1/1;
 5/5=2,38=5/2;
 7//1,2,3,16;
 1/18=20,19=15,26=3/3(-5);
 2/9=110/2;
 6/7=2,8=2,9=2,10=2,19=2,28=1/1;
 99/9=1/99;
 Leave Link    1 at Wed Apr  2 18:52:19 2025, MaxMem=  1048576000 cpu:               0.5 elap:               0.3
 (Enter /opt/rit/el9/20230413/app/linux-rhel9-x86_64_v3/gcc-11.2.1/gaussian-16-C.01-3yzt2xlc3n3d45c3wnnzh2wvb3eacy2v/g16/l101.exe)
 ---------------------
 Geometry Optimization
 ---------------------
 Symbolic Z-matrix:
 Charge =  0 Multiplicity = 1
 C
 N                    1     1.44113 
 C                    2     1.38488  1     107.68583 
 C                    3     1.34848  2     124.75492  1     165.39323  0
 C                    4     1.35071  3     121.45773  2    -179.49155  0
 H                    5     1.10359  4     121.11166  3    -0.10007  0
 C                    5     1.34432  4     122.07353  3     179.84343  0
 C                    7     1.33804  5     118.74097  4    -0.37124  0
 N                    8     1.37497  7     128.13198  5    -179.57298  0
 C                    9     1.37485  8     101.72465  7    -176.90815  0
 C                    10    1.34271  9     112.01341  8    -2.46414  0
 C                    11    1.34384  10    107.0914  9     1.64226  0
 C                    12    1.33925  11    131.52296  10    178.62894  0
 H                    13    1.10174  12    118.35082  11    1.03093  0
 C                    11    1.33921  10    121.40091  9    -179.41023  0
 C                    15    1.3493   11    119.56231  10   -0.20026  0
 C                    16    1.34844  15    120.30048  11    179.44067  0
 N                    17    1.38455  16    124.82546  15    0.37866  0
 C                    18    1.44103  17    107.53009  16    166.02777  0
 C                    19    1.53104  18    104.06038  17    21.3719  0
 N                    20    1.47761  19    99.46216  18   -20.22127  0
 H                    20    1.11539  21    110.10868  17    133.44295  0
 H                    20    1.11563  21    108.18726  17   -104.56449  0
 H                    19    1.11588  20    110.74898  21    96.47193  0
 H                    19    1.11535  20    113.25408  21   -140.53168  0
 H                    18    1.01911  19    116.14236  20    151.0205  0
 C                    16    1.35057  15    118.34292  11   -0.52606  0
 C                    27    1.34399  16    122.1532  15    0.44178  0
 H                    28    1.10343  27    121.04422  16    179.72716  0
 H                    27    1.10328  28    116.71658  29   -0.02017  0
 H                    15    1.10159  16    122.04345  17   -0.55887  0
 H                    9     1.01849  8     123.42474  7    -32.75057  0
 H                    7     1.10335  8     120.13593  9    -0.08542  0
 N                    3     1.26669  4     124.41713  5    -0.49127  0
 C                    1     1.53129  2     104.28788  3     19.82952  0
 H                    35    1.11531  1     113.72921  2    -134.86351  0
 H                    35    1.11539  1     113.02978  2     96.74784  0
 H                    2     1.01925  1     115.9703  35    149.27986  0
 H                    1     1.11583  2     110.66396  3     141.7407  0
 H                    1     1.116    2     108.6679  3    -98.41103  0
 
 ITRead=  0  0  0  0  0  0  0  0  0  0  0  0  0  0  0  0  0  0  0  0
 ITRead=  0  0  0  0  0  0  0  0  0  0  0  0  0  0  0  0  0  0  0  0
 MicOpt= -1 -1 -1 -1 -1 -1 -1 -1 -1 -1 -1 -1 -1 -1 -1 -1 -1 -1 -1 -1
 MicOpt= -1 -1 -1 -1 -1 -1 -1 -1 -1 -1 -1 -1 -1 -1 -1 -1 -1 -1 -1 -1
 NAtoms=     40 NQM=       40 NQMF=       0 NMMI=      0 NMMIF=      0
                NMic=       0 NMicF=      0.
                    Isotopes and Nuclear Properties:
 (Nuclear quadrupole moments (NQMom) in fm**2, nuclear magnetic moments (NMagM)
  in nuclear magnetons)

  Atom         1           2           3           4           5           6           7           8           9          10
 IAtWgt=          12          14          12          12          12           1          12          12          14          12
 AtmWgt=  12.0000000  14.0030740  12.0000000  12.0000000  12.0000000   1.0078250  12.0000000  12.0000000  14.0030740  12.0000000
 NucSpn=           0           2           0           0           0           1           0           0           2           0
 AtZEff=  -0.0000000  -0.0000000  -0.0000000  -0.0000000  -0.0000000  -0.0000000  -0.0000000  -0.0000000  -0.0000000  -0.0000000
 NQMom=    0.0000000   2.0440000   0.0000000   0.0000000   0.0000000   0.0000000   0.0000000   0.0000000   2.0440000   0.0000000
 NMagM=    0.0000000   0.4037610   0.0000000   0.0000000   0.0000000   2.7928460   0.0000000   0.0000000   0.4037610   0.0000000
 AtZNuc=   6.0000000   7.0000000   6.0000000   6.0000000   6.0000000   1.0000000   6.0000000   6.0000000   7.0000000   6.0000000

  Atom        11          12          13          14          15          16          17          18          19          20
 IAtWgt=          12          12          12           1          12          12          12          14          12          12
 AtmWgt=  12.0000000  12.0000000  12.0000000   1.0078250  12.0000000  12.0000000  12.0000000  14.0030740  12.0000000  12.0000000
 NucSpn=           0           0           0           1           0           0           0           2           0           0
 AtZEff=  -0.0000000  -0.0000000  -0.0000000  -0.0000000  -0.0000000  -0.0000000  -0.0000000  -0.0000000  -0.0000000  -0.0000000
 NQMom=    0.0000000   0.0000000   0.0000000   0.0000000   0.0000000   0.0000000   0.0000000   2.0440000   0.0000000   0.0000000
 NMagM=    0.0000000   0.0000000   0.0000000   2.7928460   0.0000000   0.0000000   0.0000000   0.4037610   0.0000000   0.0000000
 AtZNuc=   6.0000000   6.0000000   6.0000000   1.0000000   6.0000000   6.0000000   6.0000000   7.0000000   6.0000000   6.0000000

  Atom        21          22          23          24          25          26          27          28          29          30
 IAtWgt=          14           1           1           1           1           1          12          12           1           1
 AtmWgt=  14.0030740   1.0078250   1.0078250   1.0078250   1.0078250   1.0078250  12.0000000  12.0000000   1.0078250   1.0078250
 NucSpn=           2           1           1           1           1           1           0           0           1           1
 AtZEff=  -0.0000000  -0.0000000  -0.0000000  -0.0000000  -0.0000000  -0.0000000  -0.0000000  -0.0000000  -0.0000000  -0.0000000
 NQMom=    2.0440000   0.0000000   0.0000000   0.0000000   0.0000000   0.0000000   0.0000000   0.0000000   0.0000000   0.0000000
 NMagM=    0.4037610   2.7928460   2.7928460   2.7928460   2.7928460   2.7928460   0.0000000   0.0000000   2.7928460   2.7928460
 AtZNuc=   7.0000000   1.0000000   1.0000000   1.0000000   1.0000000   1.0000000   6.0000000   6.0000000   1.0000000   1.0000000

  Atom        31          32          33          34          35          36          37          38          39          40
 IAtWgt=           1           1           1          14          12           1           1           1           1           1
 AtmWgt=   1.0078250   1.0078250   1.0078250  14.0030740  12.0000000   1.0078250   1.0078250   1.0078250   1.0078250   1.0078250
 NucSpn=           1           1           1           2           0           1           1           1           1           1
 AtZEff=  -0.0000000  -0.0000000  -0.0000000  -0.0000000  -0.0000000  -0.0000000  -0.0000000  -0.0000000  -0.0000000  -0.0000000
 NQMom=    0.0000000   0.0000000   0.0000000   2.0440000   0.0000000   0.0000000   0.0000000   0.0000000   0.0000000   0.0000000
 NMagM=    2.7928460   2.7928460   2.7928460   0.4037610   0.0000000   2.7928460   2.7928460   2.7928460   2.7928460   2.7928460
 AtZNuc=   1.0000000   1.0000000   1.0000000   7.0000000   6.0000000   1.0000000   1.0000000   1.0000000   1.0000000   1.0000000
 Leave Link  101 at Wed Apr  2 18:52:20 2025, MaxMem=  1048576000 cpu:               1.2 elap:               0.6
 (Enter /opt/rit/el9/20230413/app/linux-rhel9-x86_64_v3/gcc-11.2.1/gaussian-16-C.01-3yzt2xlc3n3d45c3wnnzh2wvb3eacy2v/g16/l103.exe)

 GradGradGradGradGradGradGradGradGradGradGradGradGradGradGradGradGradGrad
 Berny optimization.
 Initialization pass.
                           ----------------------------
                           !    Initial Parameters    !
                           ! (Angstroms and Degrees)  !
 --------------------------                            --------------------------
 ! Name  Definition              Value          Derivative Info.                !
 --------------------------------------------------------------------------------
 ! R1    R(1,2)                  1.4411         estimate D2E/DX2                !
 ! R2    R(1,35)                 1.5313         estimate D2E/DX2                !
 ! R3    R(1,39)                 1.1158         estimate D2E/DX2                !
 ! R4    R(1,40)                 1.116          estimate D2E/DX2                !
 ! R5    R(2,3)                  1.3849         estimate D2E/DX2                !
 ! R6    R(2,38)                 1.0192         estimate D2E/DX2                !
 ! R7    R(3,4)                  1.3485         estimate D2E/DX2                !
 ! R8    R(3,34)                 1.2667         estimate D2E/DX2                !
 ! R9    R(4,5)                  1.3507         estimate D2E/DX2                !
 ! R10   R(4,13)                 1.3496         estimate D2E/DX2                !
 ! R11   R(5,6)                  1.1036         estimate D2E/DX2                !
 ! R12   R(5,7)                  1.3443         estimate D2E/DX2                !
 ! R13   R(7,8)                  1.338          estimate D2E/DX2                !
 ! R14   R(7,33)                 1.1033         estimate D2E/DX2                !
 ! R15   R(8,9)                  1.375          estimate D2E/DX2                !
 ! R16   R(8,12)                 1.3426         estimate D2E/DX2                !
 ! R17   R(9,10)                 1.3748         estimate D2E/DX2                !
 ! R18   R(9,32)                 1.0185         estimate D2E/DX2                !
 ! R19   R(10,11)                1.3427         estimate D2E/DX2                !
 ! R20   R(10,28)                1.3379         estimate D2E/DX2                !
 ! R21   R(11,12)                1.3438         estimate D2E/DX2                !
 ! R22   R(11,15)                1.3392         estimate D2E/DX2                !
 ! R23   R(12,13)                1.3392         estimate D2E/DX2                !
 ! R24   R(13,14)                1.1017         estimate D2E/DX2                !
 ! R25   R(15,16)                1.3493         estimate D2E/DX2                !
 ! R26   R(15,31)                1.1016         estimate D2E/DX2                !
 ! R27   R(16,17)                1.3484         estimate D2E/DX2                !
 ! R28   R(16,27)                1.3506         estimate D2E/DX2                !
 ! R29   R(17,18)                1.3845         estimate D2E/DX2                !
 ! R30   R(17,21)                1.2669         estimate D2E/DX2                !
 ! R31   R(18,19)                1.441          estimate D2E/DX2                !
 ! R32   R(18,26)                1.0191         estimate D2E/DX2                !
 ! R33   R(19,20)                1.531          estimate D2E/DX2                !
 ! R34   R(19,24)                1.1159         estimate D2E/DX2                !
 ! R35   R(19,25)                1.1153         estimate D2E/DX2                !
 ! R36   R(20,21)                1.4776         estimate D2E/DX2                !
 ! R37   R(20,22)                1.1154         estimate D2E/DX2                !
 ! R38   R(20,23)                1.1156         estimate D2E/DX2                !
 ! R39   R(27,28)                1.344          estimate D2E/DX2                !
 ! R40   R(27,30)                1.1033         estimate D2E/DX2                !
 ! R41   R(28,29)                1.1034         estimate D2E/DX2                !
 ! R42   R(34,35)                1.4773         estimate D2E/DX2                !
 ! R43   R(35,36)                1.1153         estimate D2E/DX2                !
 ! R44   R(35,37)                1.1154         estimate D2E/DX2                !
 ! A1    A(2,1,35)             104.2879         estimate D2E/DX2                !
 ! A2    A(2,1,39)             110.664          estimate D2E/DX2                !
 ! A3    A(2,1,40)             108.6679         estimate D2E/DX2                !
 ! A4    A(35,1,39)            113.0919         estimate D2E/DX2                !
 ! A5    A(35,1,40)            110.8192         estimate D2E/DX2                !
 ! A6    A(39,1,40)            109.1616         estimate D2E/DX2                !
 ! A7    A(1,2,3)              107.6858         estimate D2E/DX2                !
 ! A8    A(1,2,38)             115.9703         estimate D2E/DX2                !
 ! A9    A(3,2,38)             114.281          estimate D2E/DX2                !
 ! A10   A(2,3,4)              124.7549         estimate D2E/DX2                !
 ! A11   A(2,3,34)             110.8216         estimate D2E/DX2                !
 ! A12   A(4,3,34)             124.4171         estimate D2E/DX2                !
 ! A13   A(3,4,5)              121.4577         estimate D2E/DX2                !
 ! A14   A(3,4,13)             120.1905         estimate D2E/DX2                !
 ! A15   A(5,4,13)             118.3509         estimate D2E/DX2                !
 ! A16   A(4,5,6)              121.1117         estimate D2E/DX2                !
 ! A17   A(4,5,7)              122.0735         estimate D2E/DX2                !
 ! A18   A(6,5,7)              116.8148         estimate D2E/DX2                !
 ! A19   A(5,7,8)              118.741          estimate D2E/DX2                !
 ! A20   A(5,7,33)             121.1211         estimate D2E/DX2                !
 ! A21   A(8,7,33)             120.1359         estimate D2E/DX2                !
 ! A22   A(7,8,9)              128.132          estimate D2E/DX2                !
 ! A23   A(7,8,12)             119.842          estimate D2E/DX2                !
 ! A24   A(9,8,12)             112.023          estimate D2E/DX2                !
 ! A25   A(8,9,10)             101.7247         estimate D2E/DX2                !
 ! A26   A(8,9,32)             123.4247         estimate D2E/DX2                !
 ! A27   A(10,9,32)            123.4019         estimate D2E/DX2                !
 ! A28   A(9,10,11)            112.0134         estimate D2E/DX2                !
 ! A29   A(9,10,28)            128.1174         estimate D2E/DX2                !
 ! A30   A(11,10,28)           119.8674         estimate D2E/DX2                !
 ! A31   A(10,11,12)           107.0914         estimate D2E/DX2                !
 ! A32   A(10,11,15)           121.4009         estimate D2E/DX2                !
 ! A33   A(12,11,15)           131.4972         estimate D2E/DX2                !
 ! A34   A(8,12,11)            107.0831         estimate D2E/DX2                !
 ! A35   A(8,12,13)            121.3807         estimate D2E/DX2                !
 ! A36   A(11,12,13)           131.523          estimate D2E/DX2                !
 ! A37   A(4,13,12)            119.6008         estimate D2E/DX2                !
 ! A38   A(4,13,14)            122.0457         estimate D2E/DX2                !
 ! A39   A(12,13,14)           118.3508         estimate D2E/DX2                !
 ! A40   A(11,15,16)           119.5623         estimate D2E/DX2                !
 ! A41   A(11,15,31)           118.3942         estimate D2E/DX2                !
 ! A42   A(16,15,31)           122.0434         estimate D2E/DX2                !
 ! A43   A(15,16,17)           120.3005         estimate D2E/DX2                !
 ! A44   A(15,16,27)           118.3429         estimate D2E/DX2                !
 ! A45   A(17,16,27)           121.3566         estimate D2E/DX2                !
 ! A46   A(16,17,18)           124.8255         estimate D2E/DX2                !
 ! A47   A(16,17,21)           124.3978         estimate D2E/DX2                !
 ! A48   A(18,17,21)           110.7758         estimate D2E/DX2                !
 ! A49   A(17,18,19)           107.5301         estimate D2E/DX2                !
 ! A50   A(17,18,26)           114.4242         estimate D2E/DX2                !
 ! A51   A(19,18,26)           116.1424         estimate D2E/DX2                !
 ! A52   A(18,19,20)           104.0604         estimate D2E/DX2                !
 ! A53   A(18,19,24)           108.749          estimate D2E/DX2                !
 ! A54   A(18,19,25)           110.7246         estimate D2E/DX2                !
 ! A55   A(20,19,24)           110.749          estimate D2E/DX2                !
 ! A56   A(20,19,25)           113.2541         estimate D2E/DX2                !
 ! A57   A(24,19,25)           109.1488         estimate D2E/DX2                !
 ! A58   A(19,20,21)            99.4622         estimate D2E/DX2                !
 ! A59   A(19,20,22)           113.8015         estimate D2E/DX2                !
 ! A60   A(19,20,23)           113.0714         estimate D2E/DX2                !
 ! A61   A(21,20,22)           110.1087         estimate D2E/DX2                !
 ! A62   A(21,20,23)           108.1873         estimate D2E/DX2                !
 ! A63   A(22,20,23)           111.4291         estimate D2E/DX2                !
 ! A64   A(17,21,20)           113.3117         estimate D2E/DX2                !
 ! A65   A(16,27,28)           122.1532         estimate D2E/DX2                !
 ! A66   A(16,27,30)           121.1297         estimate D2E/DX2                !
 ! A67   A(28,27,30)           116.7166         estimate D2E/DX2                !
 ! A68   A(10,28,27)           118.6627         estimate D2E/DX2                !
 ! A69   A(10,28,29)           120.2899         estimate D2E/DX2                !
 ! A70   A(27,28,29)           121.0442         estimate D2E/DX2                !
 ! A71   A(3,34,35)            113.441          estimate D2E/DX2                !
 ! A72   A(1,35,34)             99.7674         estimate D2E/DX2                !
 ! A73   A(1,35,36)            113.7292         estimate D2E/DX2                !
 ! A74   A(1,35,37)            113.0298         estimate D2E/DX2                !
 ! A75   A(34,35,36)           109.9293         estimate D2E/DX2                !
 ! A76   A(34,35,37)           108.1685         estimate D2E/DX2                !
 ! A77   A(36,35,37)           111.4541         estimate D2E/DX2                !
 ! D1    D(35,1,2,3)            19.8295         estimate D2E/DX2                !
 ! D2    D(35,1,2,38)          149.2799         estimate D2E/DX2                !
 ! D3    D(39,1,2,3)           141.7407         estimate D2E/DX2                !
 ! D4    D(39,1,2,38)          -88.809          estimate D2E/DX2                !
 ! D5    D(40,1,2,3)           -98.411          estimate D2E/DX2                !
 ! D6    D(40,1,2,38)           31.0393         estimate D2E/DX2                !
 ! D7    D(2,1,35,34)          -17.8959         estimate D2E/DX2                !
 ! D8    D(2,1,35,36)         -134.8635         estimate D2E/DX2                !
 ! D9    D(2,1,35,37)           96.7478         estimate D2E/DX2                !
 ! D10   D(39,1,35,34)        -138.191          estimate D2E/DX2                !
 ! D11   D(39,1,35,36)         104.8415         estimate D2E/DX2                !
 ! D12   D(39,1,35,37)         -23.5472         estimate D2E/DX2                !
 ! D13   D(40,1,35,34)          98.8612         estimate D2E/DX2                !
 ! D14   D(40,1,35,36)         -18.1063         estimate D2E/DX2                !
 ! D15   D(40,1,35,37)        -146.495          estimate D2E/DX2                !
 ! D16   D(1,2,3,4)            165.3932         estimate D2E/DX2                !
 ! D17   D(1,2,3,34)           -13.7244         estimate D2E/DX2                !
 ! D18   D(38,2,3,4)            34.9961         estimate D2E/DX2                !
 ! D19   D(38,2,3,34)         -144.1215         estimate D2E/DX2                !
 ! D20   D(2,3,4,5)           -179.4916         estimate D2E/DX2                !
 ! D21   D(2,3,4,13)             0.8616         estimate D2E/DX2                !
 ! D22   D(34,3,4,5)            -0.4913         estimate D2E/DX2                !
 ! D23   D(34,3,4,13)          179.8619         estimate D2E/DX2                !
 ! D24   D(2,3,34,35)            0.9631         estimate D2E/DX2                !
 ! D25   D(4,3,34,35)         -178.1581         estimate D2E/DX2                !
 ! D26   D(3,4,5,6)             -0.1001         estimate D2E/DX2                !
 ! D27   D(3,4,5,7)            179.8434         estimate D2E/DX2                !
 ! D28   D(13,4,5,6)           179.5531         estimate D2E/DX2                !
 ! D29   D(13,4,5,7)            -0.5034         estimate D2E/DX2                !
 ! D30   D(3,4,13,12)         -179.7131         estimate D2E/DX2                !
 ! D31   D(3,4,13,14)            0.8962         estimate D2E/DX2                !
 ! D32   D(5,4,13,12)            0.6292         estimate D2E/DX2                !
 ! D33   D(5,4,13,14)         -178.7615         estimate D2E/DX2                !
 ! D34   D(4,5,7,8)             -0.3712         estimate D2E/DX2                !
 ! D35   D(4,5,7,33)          -179.8536         estimate D2E/DX2                !
 ! D36   D(6,5,7,8)            179.5746         estimate D2E/DX2                !
 ! D37   D(6,5,7,33)             0.0922         estimate D2E/DX2                !
 ! D38   D(5,7,8,9)           -179.573          estimate D2E/DX2                !
 ! D39   D(5,7,8,12)             1.1144         estimate D2E/DX2                !
 ! D40   D(33,7,8,9)            -0.0854         estimate D2E/DX2                !
 ! D41   D(33,7,8,12)         -179.3981         estimate D2E/DX2                !
 ! D42   D(7,8,9,10)          -176.9081         estimate D2E/DX2                !
 ! D43   D(7,8,9,32)           -32.7506         estimate D2E/DX2                !
 ! D44   D(12,8,9,10)            2.4487         estimate D2E/DX2                !
 ! D45   D(12,8,9,32)          146.6063         estimate D2E/DX2                !
 ! D46   D(7,8,12,11)          177.8155         estimate D2E/DX2                !
 ! D47   D(7,8,12,13)           -1.0034         estimate D2E/DX2                !
 ! D48   D(9,8,12,11)           -1.6013         estimate D2E/DX2                !
 ! D49   D(9,8,12,13)          179.5798         estimate D2E/DX2                !
 ! D50   D(8,9,10,11)           -2.4641         estimate D2E/DX2                !
 ! D51   D(8,9,10,28)          177.0435         estimate D2E/DX2                !
 ! D52   D(32,9,10,11)        -146.6326         estimate D2E/DX2                !
 ! D53   D(32,9,10,28)          32.8751         estimate D2E/DX2                !
 ! D54   D(9,10,11,12)           1.6423         estimate D2E/DX2                !
 ! D55   D(9,10,11,15)        -179.4102         estimate D2E/DX2                !
 ! D56   D(28,10,11,12)       -177.9111         estimate D2E/DX2                !
 ! D57   D(28,10,11,15)          1.0364         estimate D2E/DX2                !
 ! D58   D(9,10,28,27)         179.423          estimate D2E/DX2                !
 ! D59   D(9,10,28,29)           0.0666         estimate D2E/DX2                !
 ! D60   D(11,10,28,27)         -1.1033         estimate D2E/DX2                !
 ! D61   D(11,10,28,29)        179.5403         estimate D2E/DX2                !
 ! D62   D(10,11,12,8)          -0.0242         estimate D2E/DX2                !
 ! D63   D(10,11,12,13)        178.6289         estimate D2E/DX2                !
 ! D64   D(15,11,12,8)        -178.8248         estimate D2E/DX2                !
 ! D65   D(15,11,12,13)         -0.1716         estimate D2E/DX2                !
 ! D66   D(10,11,15,16)         -0.2003         estimate D2E/DX2                !
 ! D67   D(10,11,15,31)        179.7993         estimate D2E/DX2                !
 ! D68   D(12,11,15,16)        178.4565         estimate D2E/DX2                !
 ! D69   D(12,11,15,31)         -1.5439         estimate D2E/DX2                !
 ! D70   D(8,12,13,4)            0.1098         estimate D2E/DX2                !
 ! D71   D(8,12,13,14)         179.5229         estimate D2E/DX2                !
 ! D72   D(11,12,13,4)        -178.3822         estimate D2E/DX2                !
 ! D73   D(11,12,13,14)          1.0309         estimate D2E/DX2                !
 ! D74   D(11,15,16,17)        179.4407         estimate D2E/DX2                !
 ! D75   D(11,15,16,27)         -0.5261         estimate D2E/DX2                !
 ! D76   D(31,15,16,17)         -0.5589         estimate D2E/DX2                !
 ! D77   D(31,15,16,27)        179.4744         estimate D2E/DX2                !
 ! D78   D(15,16,17,18)          0.3787         estimate D2E/DX2                !
 ! D79   D(15,16,17,21)        179.9862         estimate D2E/DX2                !
 ! D80   D(27,16,17,18)       -179.6556         estimate D2E/DX2                !
 ! D81   D(27,16,17,21)         -0.0481         estimate D2E/DX2                !
 ! D82   D(15,16,27,28)          0.4418         estimate D2E/DX2                !
 ! D83   D(15,16,27,30)       -179.8219         estimate D2E/DX2                !
 ! D84   D(17,16,27,28)       -179.5246         estimate D2E/DX2                !
 ! D85   D(17,16,27,30)          0.2118         estimate D2E/DX2                !
 ! D86   D(16,17,18,19)        166.0278         estimate D2E/DX2                !
 ! D87   D(16,17,18,26)         35.4164         estimate D2E/DX2                !
 ! D88   D(21,17,18,19)        -13.6259         estimate D2E/DX2                !
 ! D89   D(21,17,18,26)       -144.2373         estimate D2E/DX2                !
 ! D90   D(16,17,21,20)        179.4754         estimate D2E/DX2                !
 ! D91   D(18,17,21,20)         -0.8692         estimate D2E/DX2                !
 ! D92   D(17,18,19,20)         21.3719         estimate D2E/DX2                !
 ! D93   D(17,18,19,24)        -96.7074         estimate D2E/DX2                !
 ! D94   D(17,18,19,25)        143.372          estimate D2E/DX2                !
 ! D95   D(26,18,19,20)        151.0205         estimate D2E/DX2                !
 ! D96   D(26,18,19,24)         32.9412         estimate D2E/DX2                !
 ! D97   D(26,18,19,25)        -86.9794         estimate D2E/DX2                !
 ! D98   D(18,19,20,21)        -20.2213         estimate D2E/DX2                !
 ! D99   D(18,19,20,22)       -137.2512         estimate D2E/DX2                !
 ! D100  D(18,19,20,23)         94.2935         estimate D2E/DX2                !
 ! D101  D(24,19,20,21)         96.4719         estimate D2E/DX2                !
 ! D102  D(24,19,20,22)        -20.558          estimate D2E/DX2                !
 ! D103  D(24,19,20,23)       -149.0133         estimate D2E/DX2                !
 ! D104  D(25,19,20,21)       -140.5317         estimate D2E/DX2                !
 ! D105  D(25,19,20,22)        102.4384         estimate D2E/DX2                !
 ! D106  D(25,19,20,23)        -26.0169         estimate D2E/DX2                !
 ! D107  D(19,20,21,17)         13.6601         estimate D2E/DX2                !
 ! D108  D(22,20,21,17)        133.443          estimate D2E/DX2                !
 ! D109  D(23,20,21,17)       -104.5645         estimate D2E/DX2                !
 ! D110  D(16,27,28,10)          0.3758         estimate D2E/DX2                !
 ! D111  D(16,27,28,29)        179.7272         estimate D2E/DX2                !
 ! D112  D(30,27,28,10)       -179.3715         estimate D2E/DX2                !
 ! D113  D(30,27,28,29)         -0.0202         estimate D2E/DX2                !
 ! D114  D(3,34,35,1)           11.0446         estimate D2E/DX2                !
 ! D115  D(3,34,35,36)         130.8304         estimate D2E/DX2                !
 ! D116  D(3,34,35,37)        -107.2683         estimate D2E/DX2                !
 --------------------------------------------------------------------------------
 Trust Radius=3.00D-01 FncErr=1.00D-07 GrdErr=1.00D-06 EigMax=2.50D+02 EigMin=1.00D-04
 Number of steps in this run=    240 maximum allowed number of steps=    240.
 GradGradGradGradGradGradGradGradGradGradGradGradGradGradGradGradGradGrad

 Leave Link  103 at Wed Apr  2 18:52:20 2025, MaxMem=  1048576000 cpu:               0.3 elap:               0.2
 (Enter /opt/rit/el9/20230413/app/linux-rhel9-x86_64_v3/gcc-11.2.1/gaussian-16-C.01-3yzt2xlc3n3d45c3wnnzh2wvb3eacy2v/g16/l202.exe)
                          Input orientation:                          
 ---------------------------------------------------------------------
 Center     Atomic      Atomic             Coordinates (Angstroms)
 Number     Number       Type             X           Y           Z
 ---------------------------------------------------------------------
      1          6           0        0.000000    0.000000    0.000000
      2          7           0        0.000000    0.000000    1.441133
      3          6           0        1.319423    0.000000    1.861855
      4          6           0        1.726114    0.279397    3.116821
      5          6           0        3.034437    0.269706    3.452419
      6          1           0        3.812506    0.030373    2.707282
      7          6           0        3.453802    0.549286    4.698676
      8          6           0        2.543337    0.853283    5.630872
      9          7           0        2.754603    1.175744    6.950689
     10          6           0        1.467534    1.311879    7.414507
     11          6           0        0.560461    1.141337    6.439308
     12          6           0        1.238322    0.852061    5.315600
     13          6           0        0.820970    0.570721    4.074533
     14          1           0       -0.262159    0.576186    3.872963
     15          6           0       -0.752541    1.245008    6.681735
     16          6           0       -1.178871    1.522636    7.931443
     17          6           0       -2.496952    1.641478    8.189935
     18          7           0       -3.503482    1.491495    7.251120
     19          6           0       -4.748222    1.363919    7.965898
     20          6           0       -4.457042    1.986536    9.333984
     21          7           0       -2.981994    1.899590    9.331455
     22          1           0       -4.873914    1.406316   10.190526
     23          1           0       -4.742281    3.063418    9.393869
     24          1           0       -4.993254    0.280150    8.068856
     25          1           0       -5.573229    1.874920    7.416133
     26          1           0       -3.317347    0.782205    6.543414
     27          6           0       -0.255150    1.676825    8.904589
     28          6           0        1.062722    1.571132    8.663049
     29          1           0        1.801904    1.705006    9.471282
     30          1           0       -0.552648    1.901696    9.942934
     31          1           0       -1.453021    1.098883    5.844195
     32          1           0        3.513503    0.788011    7.508411
     33          1           0        4.526919    0.539125    4.954986
     34          7           0        2.097816   -0.280899    0.902842
     35          6           0        1.395932   -0.503379   -0.377912
     36          1           0        1.883356    0.090156   -1.186647
     37          1           0        1.419913   -1.595664   -0.602483
     38          1           0       -0.582241    0.707563    1.887466
     39          1           0       -0.819799   -0.646493   -0.393760
     40          1           0       -0.154652    1.045910   -0.357210
 ---------------------------------------------------------------------
                    Distance matrix (angstroms):
                    1          2          3          4          5
     1  C    0.000000
     2  N    1.441133   0.000000
     3  C    2.281969   1.384877   0.000000
     4  C    3.573809   2.421872   1.348481   0.000000
     5  C    4.604318   3.650454   2.354550   1.350713   0.000000
     6  H    4.676056   4.017369   2.632704   2.140739   1.103585
     7  C    5.857305   4.779336   3.592331   2.357967   1.344318
     8  C    6.237257   4.974994   4.053584   2.705115   2.308116
     9  N    7.568507   6.270998   5.416489   4.069370   3.624515
    10  C    7.671349   6.289346   5.707443   4.427526   4.386280
    11  C    6.563647   5.157375   4.778258   3.624998   3.975148
    12  C    5.524043   4.155833   3.558222   2.323901   2.652661
    13  C    4.195418   2.816826   2.338829   1.349580   2.318851
    14  H    3.924354   2.512870   2.622584   2.147805   3.337414
    15  C    6.838271   5.438775   5.392061   4.448005   5.071577
    16  C    8.161859   6.769954   6.737937   5.758921   6.275624
    17  C    8.718042   7.380755   7.569925   6.739884   7.410943
    18  N    8.190097   6.946575   7.384386   6.775713   7.659457
    19  C    9.373443   8.184037   8.714123   8.161297   9.063034
    20  C   10.532560   9.279475   9.651248   8.933021   9.677942
    21  N    9.978817   8.646266   8.826413   7.963227   8.568374
    22  H   11.383303  10.113587  10.473868   9.740001  10.451602
    23  H   10.959860   9.752936  10.141993   9.433570  10.177573
    24  H    9.493024   8.302878   8.857496   8.347009   9.260422
    25  H    9.464419   8.383128   9.048425   8.620336   9.611434
    26  H    7.377866   6.135952   6.635396   6.118076   7.082518
    27  C    9.064687   7.653758   7.408854   6.275067   6.521313
    28  C    8.868273   7.466854   6.985026   5.733177   5.721192
    29  H    9.790765   8.404594   7.813015   6.512854   6.309194
    30  H   10.138235   8.729404   8.510284   7.377020   7.593244
    31  H    6.121554   4.765057   4.975241   4.268141   5.152224
    32  H    8.327179   7.055319   6.108891   4.768596   4.116943
    33  H    6.733167   5.755938   4.488446   3.360181   2.134901
    34  N    2.301056   2.183917   1.266691   2.313828   2.771419
    35  C    1.531285   2.347540   2.296911   3.596515   4.237192
    36  H    2.227843   3.234251   3.101533   4.310496   4.783111
    37  H    2.219298   2.956123   2.937551   4.176462   4.746422
    38  H    2.098137   1.019246   2.029194   2.650121   3.964991
    39  H    1.115828   2.111127   3.175221   4.434313   5.521562
    40  H    1.115995   2.086117   2.862006   4.024142   5.028524
                    6          7          8          9         10
     6  H    0.000000
     7  C    2.088921   0.000000
     8  C    3.291709   1.338040   0.000000
     9  N    4.520790   2.439855   1.374966   0.000000
    10  C    5.412866   3.450007   2.132842   1.374847   0.000000
    11  C    5.073269   3.428082   2.160634   2.253209   1.342713
    12  C    3.755652   2.319617   1.342558   2.253308   2.160875
    13  C    3.333262   2.705886   2.338500   3.518134   3.481780
    14  H    4.273127   3.806690   3.322324   4.351175   4.009441
    15  C    6.173432   4.702113   3.481461   3.518123   2.338837
    16  C    7.377842   5.732351   4.426680   4.068713   2.704644
    17  C    8.512603   6.985216   5.707413   5.415853   4.053032
    18  N    8.735275   7.470377   6.292578   6.273243   4.976943
    19  C   10.134962   8.866317   7.673326   7.573536   6.240382
    20  C   10.776139   9.280798   8.000163   7.638409   6.264196
    21  N    9.671550   8.043969   6.731891   6.253042   4.880409
    22  H   11.547556  10.012281   8.724214   8.291199   6.923089
    23  H   11.273606   9.774532   8.492648   8.107755   6.748893
    24  H   10.312627   9.098533   7.941816   7.879192   6.575288
    25  H   10.661503   9.519935   8.373144   8.370082   7.063240
    26  H    8.131172   7.021806   5.931728   6.098304   4.892284
    27  C    7.593632   5.719910   4.384857   3.623178   2.306766
    28  C    6.738428   4.741064   3.449873   2.439460   1.337887
    29  H    7.252490   5.180948   4.002986   2.746113   2.120536
    30  H    8.655119   6.736683   5.410931   4.518677   3.289675
    31  H    6.221552   5.068647   4.009577   4.351360   3.322784
    32  H    4.869729   2.820491   2.114388   1.018490   2.114059
    33  H    2.412756   1.103349   2.118990   2.743943   4.000779
    34  N    2.508596   4.115369   4.882533   6.255369   6.733200
    35  C    3.955141   5.578053   6.265984   7.640278   8.001380
    36  H    4.346018   6.108529   6.891770   8.255532   8.697434
    37  H    4.395798   6.069580   6.790739   8.155520   8.528083
    38  H    4.521557   4.921137   4.878889   6.081936   5.925787
    39  H    5.615413   6.754737   7.060893   8.368861   8.368761
    40  H    5.114760   6.231337   6.570645   7.866767   7.943665
                   11         12         13         14         15
    11  C    0.000000
    12  C    1.343836   0.000000
    13  C    2.446555   1.339247   0.000000
    14  H    2.753585   2.099703   1.101739   0.000000
    15  C    1.339213   2.446276   3.118991   2.928652   0.000000
    16  C    2.323173   3.624241   4.447614   4.267012   1.349298
    17  C    3.558456   4.778833   5.393669   4.976485   2.339835
    18  N    4.159000   5.161378   5.444210   4.770316   2.820042
    19  C    5.528303   6.566947   6.840161   6.123513   4.198653
    20  C    5.853960   7.061983   7.584443   7.029145   4.616017
    21  N    4.635563   5.919077   6.622965   6.240516   3.524196
    22  H    6.608652   7.837827   8.398530   7.865685   5.415104
    23  H    6.367330   7.569015   8.090651   7.532478   5.155610
    24  H    5.851565   6.836668   7.060046   6.330594   4.564943
    25  H    6.254158   7.201090   7.331645   6.515231   4.916825
    26  H    3.895794   4.718742   4.823460   4.062995   2.609895
    27  C    2.651335   3.973856   5.070596   5.150604   2.318392
    28  C    2.319917   3.428311   4.702526   5.068546   2.706869
    29  H    3.324420   4.279583   5.601226   6.072542   3.810296
    30  H    3.754005   5.071639   6.172233   6.219800   3.332659
    31  H    2.100018   2.753845   2.929453   2.361593   1.101590
    32  H    3.160424   3.160534   4.369036   5.245663   4.369367
    33  H    4.277694   3.323078   3.809233   4.909931   5.599342
    34  N    5.919347   4.636245   3.523523   3.889177   6.621823
    35  C    7.062407   5.854754   4.616117   4.688781   7.583628
    36  H    7.810904   6.578433   5.388841   5.517164   8.378130
    37  H    7.603727   6.406875   5.189068   5.251277   8.114728
    38  H    4.713087   3.884254   2.602112   2.015418   4.827304
    39  H    7.196685   6.251266   4.913184   4.473347   7.324271
    40  H    6.834702   5.844547   4.562673   4.257530   7.067097
                   16         17         18         19         20
    16  C    0.000000
    17  C    1.348436   0.000000
    18  N    2.422318   1.384547   0.000000
    19  C    3.573044   2.279353   1.441028   0.000000
    20  C    3.595654   2.295619   2.343643   1.531045   0.000000
    21  N    2.313737   1.266869   2.183182   2.295921   1.477610
    22  H    4.332474   3.115705   3.244294   2.228579   1.115393
    23  H    4.148564   2.917683   2.932053   2.219782   1.115627
    24  H    4.013996   2.845944   2.086975   1.115883   2.190850
    25  H    4.438472   3.180684   2.111421   1.115348   2.221821
    26  H    2.654796   2.030377   1.019111   2.099823   3.246013
    27  C    1.350573   2.353222   3.649653   4.600733   4.235114
    28  C    2.358462   3.591666   4.780179   5.856282   5.575886
    29  H    3.359968   4.486207   5.755157   6.729538   6.266779
    30  H    2.140547   2.630787   4.015165   4.669124   3.952507
    31  H    2.147401   2.624252   2.517533   3.928132   4.689424
    32  H    4.768334   6.108883   7.056853   8.294400   8.264306
    33  H    6.510195   7.811200   8.406342   9.786426  10.098623
    34  N    7.961825   8.826616   8.649657   9.972985  10.917490
    35  C    8.931950   9.652096   9.283637  10.528847  11.609389
    36  H    9.724649  10.464893  10.108298  11.374066  12.429021
    37  H    9.450152  10.155173   9.769824  10.964588  12.087355
    38  H    6.127803   6.652776   6.157677   7.398212   8.491201
    39  H    8.610637   9.040325   8.379579   9.452945  10.714075
    40  H    8.365289   8.882272   8.324656   9.511895  10.644932
                   21         22         23         24         25
    21  N    0.000000
    22  H    2.135576   0.000000
    23  H    2.111161   1.843361   0.000000
    24  H    2.874354   2.404989   3.092770   0.000000
    25  H    3.222355   2.899291   2.452436   1.818161   0.000000
    26  H    3.022282   4.014205   3.919115   2.321141   2.654180
    27  C    2.769028   4.802061   4.721904   5.009868   5.526003
    28  C    4.112710   6.132210   6.038135   6.220494   6.758916
    29  H    4.789895   6.721092   6.684133   7.083162   7.658009
    30  H    2.505121   4.356610   4.382248   5.085328   5.620648
    31  H    3.890999   5.539641   5.222912   4.260597   4.477648
    32  H    6.837439   8.827503   8.768717   8.540312   9.151972
    33  H    8.797052  10.795303  10.582713  10.019828  10.481154
    34  N   10.079709  11.735109  11.404776  10.097020  10.291523
    35  C   10.918439  12.435827  12.078386  10.619958  10.722530
    36  H   11.729286  13.297858  12.833030  11.532050  11.523621
    37  H   11.413883  12.849638  12.633556  10.947124  11.191390
    38  H    7.911556   9.372701   8.899554   7.605873   7.539154
    39  H   10.282872  11.518550  11.177969   9.481154   9.484042
    40  H   10.128814  11.560971  10.963586   9.746643   9.511735
                   26         27         28         29         30
    26  H    0.000000
    27  C    3.968947   0.000000
    28  C    4.929530   1.343987   0.000000
    29  H    5.969146   2.133872   1.103427   0.000000
    30  H    4.522561   1.103283   2.087295   2.409369   0.000000
    31  H    2.016160   3.336904   3.807615   4.910976   4.272569
    32  H    6.898678   4.116072   2.820070   2.761034   4.868344
    33  H    8.007166   6.305705   5.178362   5.402028   7.248326
    34  N    7.891149   8.567210   8.045014   8.800542   9.670158
    35  C    8.471864   9.676993   9.281897  10.101901  10.775028
    36  H    9.342380  10.436654   9.994160  10.779880  11.536176
    37  H    8.897176  10.193107   9.798279  10.607595  11.283987
    38  H    5.400391   7.091295   7.025680   8.012072   8.143549
    39  H    7.510214   9.600830   9.512495  10.474824  10.649502
    40  H    7.595445   9.283807   9.117178  10.042996  10.343295
                   31         32         33         34         35
    31  H    0.000000
    32  H    5.247154   0.000000
    33  H    6.071550   2.758430   0.000000
    34  N    6.239328   6.839612   4.795087   0.000000
    35  C    7.028399   8.267158   6.271340   1.477318   0.000000
    36  H    7.847399   8.874030   6.701467   2.132988   1.115310
    37  H    7.554733   8.709284   6.715376   2.110489   1.115389
    38  H    4.070269   6.955330   5.961675   3.021464   3.242142
    39  H    6.508409   9.125767   7.655206   3.213614   2.220405
    40  H    6.336086   8.682735   7.098829   2.902028   2.192040
                   36         37         38         39         40
    36  H    0.000000
    37  H    1.843371   0.000000
    38  H    3.988800   3.938695   0.000000
    39  H    2.911764   2.441476   2.663437   0.000000
    40  H    2.398939   3.085017   2.309953   1.818787   0.000000
 Stoichiometry    C18H17N5
 Framework group  C1[X(C18H17N5)]
 Deg. of freedom   114
 Full point group                 C1      NOp   1
 Largest Abelian subgroup         C1      NOp   1
 Largest concise Abelian subgroup C1      NOp   1
                         Standard orientation:                         
 ---------------------------------------------------------------------
 Center     Atomic      Atomic             Coordinates (Angstroms)
 Number     Number       Type             X           Y           Z
 ---------------------------------------------------------------------
      1          6           0        4.680739   -2.800630   -0.265071
      2          7           0        3.470921   -2.078389    0.037538
      3          6           0        3.783863   -0.729816    0.073643
      4          6           0        2.879523    0.270143    0.048116
      5          6           0        3.260270    1.565777    0.076253
      6          1           0        4.326711    1.845845    0.122791
      7          6           0        2.369603    2.572313    0.048216
      8          6           0        1.066293    2.276535   -0.016971
      9          7           0        0.000196    3.143616   -0.063214
     10          6           0       -1.066325    2.276147   -0.047855
     11          6           0       -0.671344    0.992845   -0.050112
     12          6           0        0.672346    0.993144   -0.030310
     13          6           0        1.560027   -0.009183    0.000456
     14          1           0        1.181307   -1.043774   -0.004326
     15          6           0       -1.558580   -0.010301   -0.048500
     16          6           0       -2.878716    0.268590   -0.040424
     17          6           0       -3.785051   -0.729780   -0.050058
     18          7           0       -3.474957   -2.079112   -0.060821
     19          6           0       -4.677806   -2.803502    0.263178
     20          6           0       -5.804381   -1.821477   -0.069317
     21          7           0       -5.040085   -0.557156   -0.043309
     22          1           0       -6.617337   -1.793901    0.693863
     23          1           0       -6.215012   -1.959052   -1.097460
     24          1           0       -4.670212   -3.042063    1.353236
     25          1           0       -4.735465   -3.753229   -0.318798
     26          1           0       -2.644370   -2.324905    0.476113
     27          6           0       -3.260284    1.564028   -0.023282
     28          6           0       -2.370927    2.571672   -0.022924
     29          1           0       -2.703138    3.623857   -0.013259
     30          1           0       -4.327340    1.844244   -0.013149
     31          1           0       -1.179766   -1.044695   -0.053884
     32          1           0       -0.006965    4.049298    0.402630
     33          1           0        2.698257    3.625363    0.069476
     34          7           0        5.038366   -0.559681    0.115863
     35          6           0        5.803886   -1.822963    0.092061
     36          1           0        6.609652   -1.764775   -0.676882
     37          1           0        6.223964   -1.994322    1.111013
     38          1           0        2.660121   -2.305270   -0.536911
     39          1           0        4.727291   -3.751920    0.316266
     40          1           0        4.692407   -3.036888   -1.355709
 ---------------------------------------------------------------------
 Rotational constants (GHZ):           0.4810921           0.1348591           0.1057965
 Leave Link  202 at Wed Apr  2 18:52:20 2025, MaxMem=  1048576000 cpu:               0.3 elap:               0.2
 (Enter /opt/rit/el9/20230413/app/linux-rhel9-x86_64_v3/gcc-11.2.1/gaussian-16-C.01-3yzt2xlc3n3d45c3wnnzh2wvb3eacy2v/g16/l301.exe)
 Standard basis: 6-31G (6D, 7F)
 Ernie: Thresh=  0.10000D-02 Tol=  0.10000D-05 Strict=F.
 There are   241 symmetry adapted cartesian basis functions of A   symmetry.
 There are   241 symmetry adapted basis functions of A   symmetry.
   241 basis functions,   574 primitive gaussians,   241 cartesian basis functions
    80 alpha electrons       80 beta electrons
       nuclear repulsion energy      1787.0957145935 Hartrees.
 IExCor=  402 DFT=T Ex+Corr=B3LYP ExCW=0 ScaHFX=  0.200000
 ScaDFX=  0.800000  0.720000  1.000000  0.810000 ScalE2=  1.000000  1.000000
 IRadAn=      5 IRanWt=     -1 IRanGd=            0 ICorTp=0 IEmpDi=  4
 NAtoms=   40 NActive=   40 NUniq=   40 SFac= 1.00D+00 NAtFMM=   60 NAOKFM=F Big=F
 Integral buffers will be    131072 words long.
 Raffenetti 2 integral format.
 Two-electron integral symmetry is turned on.
 Leave Link  301 at Wed Apr  2 18:52:21 2025, MaxMem=  1048576000 cpu:               0.5 elap:               0.3
 (Enter /opt/rit/el9/20230413/app/linux-rhel9-x86_64_v3/gcc-11.2.1/gaussian-16-C.01-3yzt2xlc3n3d45c3wnnzh2wvb3eacy2v/g16/l302.exe)
 NPDir=0 NMtPBC=     1 NCelOv=     1 NCel=       1 NClECP=     1 NCelD=      1
         NCelK=      1 NCelE2=     1 NClLst=     1 CellRange=     0.0.
 One-electron integrals computed using PRISM.
 One-electron integral symmetry used in STVInt
 NBasis=   241 RedAO= T EigKep=  2.37D-04  NBF=   241
 NBsUse=   241 1.00D-06 EigRej= -1.00D+00 NBFU=   241
 Precomputing XC quadrature grid using
 IXCGrd= 4 IRadAn=           5 IRanWt=          -1 IRanGd=           0 AccXCQ= 0.00D+00.
 Generated NRdTot=       0 NPtTot=           0 NUsed=           0 NTot=          32
 NSgBfM=   237   237   237   237   237 MxSgAt=    40 MxSgA2=    40.
 Leave Link  302 at Wed Apr  2 18:52:24 2025, MaxMem=  1048576000 cpu:               6.1 elap:               3.1
 (Enter /opt/rit/el9/20230413/app/linux-rhel9-x86_64_v3/gcc-11.2.1/gaussian-16-C.01-3yzt2xlc3n3d45c3wnnzh2wvb3eacy2v/g16/l303.exe)
 DipDrv:  MaxL=1.
 Leave Link  303 at Wed Apr  2 18:52:24 2025, MaxMem=  1048576000 cpu:               0.6 elap:               0.3
 (Enter /opt/rit/el9/20230413/app/linux-rhel9-x86_64_v3/gcc-11.2.1/gaussian-16-C.01-3yzt2xlc3n3d45c3wnnzh2wvb3eacy2v/g16/l401.exe)
 ExpMin= 1.61D-01 ExpMax= 4.17D+03 ExpMxC= 6.27D+02 IAcc=3 IRadAn=         5 AccDes= 0.00D+00
 Harris functional with IExCor=  402 and IRadAn=       5 diagonalized for initial guess.
 HarFok:  IExCor=  402 AccDes= 0.00D+00 IRadAn=         5 IDoV= 1 UseB2=F ITyADJ=14
 ICtDFT=  3500011 ScaDFX=  1.000000  1.000000  1.000000  1.000000
 FoFCou: FMM=F IPFlag=           0 FMFlag=      100000 FMFlg1=           0
         NFxFlg=           0 DoJE=T BraDBF=F KetDBF=T FulRan=T
         wScrn=  0.000000 ICntrl=       500 IOpCl=  0 I1Cent=   200000004 NGrid=           0
         NMat0=    1 NMatS0=      1 NMatT0=    0 NMatD0=    1 NMtDS0=    0 NMtDT0=    0
 Petite list used in FoFCou.
 Harris En= -969.508735319248    
 JPrj=0 DoOrth=F DoCkMO=F.
 Leave Link  401 at Wed Apr  2 18:52:35 2025, MaxMem=  1048576000 cpu:              21.1 elap:              10.7
 (Enter /opt/rit/el9/20230413/app/linux-rhel9-x86_64_v3/gcc-11.2.1/gaussian-16-C.01-3yzt2xlc3n3d45c3wnnzh2wvb3eacy2v/g16/l502.exe)
 Integral symmetry usage will be decided dynamically.
 Closed shell SCF:
 Using DIIS extrapolation, IDIIS=  1040.
 NGot=  1048576000 LenX=  1048454276 LenY=  1048395754
 Requested convergence on RMS density matrix=1.00D-08 within 128 cycles.
 Requested convergence on MAX density matrix=1.00D-06.
 Requested convergence on             energy=1.00D-06.
 No special actions if energy rises.
 Fock matrices will be formed incrementally for  20 cycles.
 Integral accuracy reduced to 1.0D-05 until final iterations.

 Cycle   1  Pass 0  IDiag  1:
 FoFJK:  IHMeth= 1 ICntrl=       0 DoSepK=F KAlg= 0 I1Cent=           0 FoldK=F
 IRaf= 710000000 NMat=       1 IRICut=       1 DoRegI=T DoRafI=F ISym2E= 0 IDoP0=0 IntGTp=1.
 FoFCou: FMM=F IPFlag=           0 FMFlag=      100000 FMFlg1=           0
         NFxFlg=           0 DoJE=F BraDBF=F KetDBF=F FulRan=T
         wScrn=  0.000000 ICntrl=         0 IOpCl=  0 I1Cent=           0 NGrid=           0
         NMat0=    1 NMatS0=      1 NMatT0=    0 NMatD0=    1 NMtDS0=    0 NMtDT0=    0
 Symmetry not used in FoFCou.
 E= -969.061304428097    
 DIIS: error= 3.07D-02 at cycle   1 NSaved=   1.
 NSaved= 1 IEnMin= 1 EnMin= -969.061304428097     IErMin= 1 ErrMin= 3.07D-02
 ErrMax= 3.07D-02  0.00D+00 EMaxC= 1.00D-01 BMatC= 4.09D-01 BMatP= 4.09D-01
 IDIUse=3 WtCom= 6.93D-01 WtEn= 3.07D-01
 Coeff-Com:  0.100D+01
 Coeff-En:   0.100D+01
 Coeff:      0.100D+01
 Gap=     0.188 Goal=   None    Shift=    0.000
 GapD=    0.188 DampG=1.000 DampE=0.500 DampFc=0.5000 IDamp=-1.
 Damping current iteration by 5.00D-01
 RMSDP=1.06D-02 MaxDP=1.86D-01              OVMax= 2.39D-01

 Cycle   2  Pass 0  IDiag  1:
 RMSU=  5.24D-03    CP:  9.75D-01
 E= -969.265634156326     Delta-E=       -0.204329728229 Rises=F Damp=T
 DIIS: error= 7.71D-03 at cycle   2 NSaved=   2.
 NSaved= 2 IEnMin= 2 EnMin= -969.265634156326     IErMin= 2 ErrMin= 7.71D-03
 ErrMax= 7.71D-03  0.00D+00 EMaxC= 1.00D-01 BMatC= 2.87D-02 BMatP= 4.09D-01
 IDIUse=3 WtCom= 9.23D-01 WtEn= 7.71D-02
 Coeff-Com:  0.628D-01 0.937D+00
 Coeff-En:   0.954D-01 0.905D+00
 Coeff:      0.653D-01 0.935D+00
 Gap=     0.312 Goal=   None    Shift=    0.000
 RMSDP=3.62D-03 MaxDP=6.81D-02 DE=-2.04D-01 OVMax= 2.09D-01

 Cycle   3  Pass 0  IDiag  1:
 RMSU=  3.43D-03    CP:  9.44D-01  8.72D-01
 E= -969.474469170836     Delta-E=       -0.208835014510 Rises=F Damp=F
 DIIS: error= 1.60D-02 at cycle   3 NSaved=   3.
 NSaved= 3 IEnMin= 3 EnMin= -969.474469170836     IErMin= 2 ErrMin= 7.71D-03
 ErrMax= 1.60D-02  0.00D+00 EMaxC= 1.00D-01 BMatC= 5.39D-02 BMatP= 2.87D-02
 IDIUse=2 WtCom= 0.00D+00 WtEn= 1.00D+00
 Coeff-En:   0.000D+00 0.000D+00 0.100D+01
 Coeff:      0.000D+00 0.000D+00 0.100D+01
 Gap=     0.223 Goal=   None    Shift=    0.000
 RMSDP=5.33D-03 MaxDP=1.38D-01 DE=-2.09D-01 OVMax= 2.90D-01

 Cycle   4  Pass 0  IDiag  1:
 RMSU=  3.67D-03    CP:  9.60D-01  1.46D+00  3.44D-01
 E= -969.232183457294     Delta-E=        0.242285713542 Rises=F Damp=F
 DIIS: error= 3.84D-02 at cycle   4 NSaved=   4.
 NSaved= 4 IEnMin= 3 EnMin= -969.474469170836     IErMin= 2 ErrMin= 7.71D-03
 ErrMax= 3.84D-02  0.00D+00 EMaxC= 1.00D-01 BMatC= 2.86D-01 BMatP= 2.87D-02
 IDIUse=2 WtCom= 0.00D+00 WtEn= 1.00D+00
 Coeff-En:   0.000D+00 0.000D+00 0.789D+00 0.211D+00
 Coeff:      0.000D+00 0.000D+00 0.789D+00 0.211D+00
 Gap=     0.174 Goal=   None    Shift=    0.000
 RMSDP=3.00D-03 MaxDP=7.09D-02 DE= 2.42D-01 OVMax= 1.36D-01

 Cycle   5  Pass 0  IDiag  1:
 RMSU=  4.76D-04    CP:  9.51D-01  1.13D+00  6.84D-01  4.41D-01
 E= -969.505425493576     Delta-E=       -0.273242036282 Rises=F Damp=F
 DIIS: error= 1.04D-02 at cycle   5 NSaved=   5.
 NSaved= 5 IEnMin= 5 EnMin= -969.505425493576     IErMin= 2 ErrMin= 7.71D-03
 ErrMax= 1.04D-02  0.00D+00 EMaxC= 1.00D-01 BMatC= 2.31D-02 BMatP= 2.87D-02
 IDIUse=3 WtCom= 8.96D-01 WtEn= 1.04D-01
 Coeff-Com:  0.447D-02 0.187D-01 0.357D+00-0.346D-01 0.654D+00
 Coeff-En:   0.000D+00 0.000D+00 0.347D+00 0.000D+00 0.653D+00
 Coeff:      0.400D-02 0.167D-01 0.356D+00-0.310D-01 0.654D+00
 Gap=     0.181 Goal=   None    Shift=    0.000
 RMSDP=1.03D-03 MaxDP=2.69D-02 DE=-2.73D-01 OVMax= 5.68D-02

 Cycle   6  Pass 0  IDiag  1:
 RMSU=  2.07D-04    CP:  9.48D-01  1.01D+00  8.07D-01  2.55D-01  7.31D-01
 E= -969.528421819043     Delta-E=       -0.022996325467 Rises=F Damp=F
 DIIS: error= 1.09D-03 at cycle   6 NSaved=   6.
 NSaved= 6 IEnMin= 6 EnMin= -969.528421819043     IErMin= 6 ErrMin= 1.09D-03
 ErrMax= 1.09D-03  0.00D+00 EMaxC= 1.00D-01 BMatC= 2.05D-04 BMatP= 2.31D-02
 IDIUse=3 WtCom= 9.89D-01 WtEn= 1.09D-02
 Coeff-Com:  0.502D-03 0.476D-02 0.139D+00-0.597D-01 0.426D+00 0.489D+00
 Coeff-En:   0.000D+00 0.000D+00 0.000D+00 0.000D+00 0.000D+00 0.100D+01
 Coeff:      0.497D-03 0.471D-02 0.137D+00-0.590D-01 0.422D+00 0.495D+00
 Gap=     0.179 Goal=   None    Shift=    0.000
 RMSDP=1.08D-04 MaxDP=3.17D-03 DE=-2.30D-02 OVMax= 5.05D-03

 Cycle   7  Pass 0  IDiag  1:
 RMSU=  4.56D-05    CP:  9.47D-01  1.02D+00  8.04D-01  2.55D-01  8.24D-01
                    CP:  6.08D-01
 E= -969.528631538610     Delta-E=       -0.000209719567 Rises=F Damp=F
 DIIS: error= 2.43D-04 at cycle   7 NSaved=   7.
 NSaved= 7 IEnMin= 7 EnMin= -969.528631538610     IErMin= 7 ErrMin= 2.43D-04
 ErrMax= 2.43D-04  0.00D+00 EMaxC= 1.00D-01 BMatC= 1.11D-05 BMatP= 2.05D-04
 IDIUse=3 WtCom= 9.98D-01 WtEn= 2.43D-03
 Coeff-Com:  0.814D-04 0.248D-02 0.529D-01-0.304D-01 0.185D+00 0.269D+00
 Coeff-Com:  0.522D+00
 Coeff-En:   0.000D+00 0.000D+00 0.000D+00 0.000D+00 0.000D+00 0.000D+00
 Coeff-En:   0.100D+01
 Coeff:      0.812D-04 0.248D-02 0.528D-01-0.303D-01 0.184D+00 0.268D+00
 Coeff:      0.523D+00
 Gap=     0.178 Goal=   None    Shift=    0.000
 RMSDP=2.52D-05 MaxDP=5.32D-04 DE=-2.10D-04 OVMax= 9.03D-04

 Cycle   8  Pass 0  IDiag  1:
 RMSU=  1.48D-05    CP:  9.48D-01  1.02D+00  8.05D-01  2.55D-01  8.16D-01
                    CP:  6.35D-01  6.37D-01
 E= -969.528642718342     Delta-E=       -0.000011179732 Rises=F Damp=F
 DIIS: error= 7.09D-05 at cycle   8 NSaved=   8.
 NSaved= 8 IEnMin= 8 EnMin= -969.528642718342     IErMin= 8 ErrMin= 7.09D-05
 ErrMax= 7.09D-05  0.00D+00 EMaxC= 1.00D-01 BMatC= 1.16D-06 BMatP= 1.11D-05
 IDIUse=1 WtCom= 1.00D+00 WtEn= 0.00D+00
 Coeff-Com:  0.183D-03-0.285D-03 0.809D-02-0.525D-02 0.269D-01 0.620D-01
 Coeff-Com:  0.267D+00 0.641D+00
 Coeff:      0.183D-03-0.285D-03 0.809D-02-0.525D-02 0.269D-01 0.620D-01
 Coeff:      0.267D+00 0.641D+00
 Gap=     0.178 Goal=   None    Shift=    0.000
 RMSDP=9.07D-06 MaxDP=2.64D-04 DE=-1.12D-05 OVMax= 2.63D-04

 Initial convergence to 1.0D-05 achieved.  Increase integral accuracy.
 Cycle   9  Pass 1  IDiag  1:
 E= -969.528607846386     Delta-E=        0.000034871956 Rises=F Damp=F
 DIIS: error= 9.00D-05 at cycle   1 NSaved=   1.
 NSaved= 1 IEnMin= 1 EnMin= -969.528607846386     IErMin= 1 ErrMin= 9.00D-05
 ErrMax= 9.00D-05  0.00D+00 EMaxC= 1.00D-01 BMatC= 1.04D-06 BMatP= 1.04D-06
 IDIUse=1 WtCom= 1.00D+00 WtEn= 0.00D+00
 Coeff-Com:  0.100D+01
 Coeff:      0.100D+01
 Gap=     0.179 Goal=   None    Shift=    0.000
 RMSDP=9.07D-06 MaxDP=2.64D-04 DE= 3.49D-05 OVMax= 2.63D-04

 Cycle  10  Pass 1  IDiag  1:
 RMSU=  1.13D-04    CP:  1.00D+00
 E= -969.528608333741     Delta-E=       -0.000000487355 Rises=F Damp=F
 DIIS: error= 4.26D-05 at cycle   2 NSaved=   2.
 NSaved= 2 IEnMin= 2 EnMin= -969.528608333741     IErMin= 2 ErrMin= 4.26D-05
 ErrMax= 4.26D-05  0.00D+00 EMaxC= 1.00D-01 BMatC= 4.24D-07 BMatP= 1.04D-06
 IDIUse=1 WtCom= 1.00D+00 WtEn= 0.00D+00
 Coeff-Com:  0.338D+00 0.662D+00
 Coeff:      0.338D+00 0.662D+00
 Gap=     0.178 Goal=   None    Shift=    0.000
 RMSDP=9.01D-06 MaxDP=1.66D-04 DE=-4.87D-07 OVMax= 3.38D-04

 Cycle  11  Pass 1  IDiag  1:
 RMSU=  8.96D-06    CP:  1.00D+00  1.01D+00
 E= -969.528608373847     Delta-E=       -0.000000040106 Rises=F Damp=F
 DIIS: error= 4.35D-05 at cycle   3 NSaved=   3.
 NSaved= 3 IEnMin= 3 EnMin= -969.528608373847     IErMin= 2 ErrMin= 4.26D-05
 ErrMax= 4.35D-05  0.00D+00 EMaxC= 1.00D-01 BMatC= 3.84D-07 BMatP= 4.24D-07
 IDIUse=1 WtCom= 1.00D+00 WtEn= 0.00D+00
 Coeff-Com:  0.394D-02 0.487D+00 0.509D+00
 Coeff:      0.394D-02 0.487D+00 0.509D+00
 Gap=     0.178 Goal=   None    Shift=    0.000
 RMSDP=4.66D-06 MaxDP=9.68D-05 DE=-4.01D-08 OVMax= 1.69D-04

 Cycle  12  Pass 1  IDiag  1:
 RMSU=  1.04D-06    CP:  1.00D+00  1.01D+00  4.98D-01
 E= -969.528608803600     Delta-E=       -0.000000429753 Rises=F Damp=F
 DIIS: error= 6.42D-06 at cycle   4 NSaved=   4.
 NSaved= 4 IEnMin= 4 EnMin= -969.528608803600     IErMin= 4 ErrMin= 6.42D-06
 ErrMax= 6.42D-06  0.00D+00 EMaxC= 1.00D-01 BMatC= 9.33D-09 BMatP= 3.84D-07
 IDIUse=1 WtCom= 1.00D+00 WtEn= 0.00D+00
 Coeff-Com: -0.352D-02 0.293D+00 0.318D+00 0.393D+00
 Coeff:     -0.352D-02 0.293D+00 0.318D+00 0.393D+00
 Gap=     0.178 Goal=   None    Shift=    0.000
 RMSDP=5.92D-07 MaxDP=1.28D-05 DE=-4.30D-07 OVMax= 1.88D-05

 Cycle  13  Pass 1  IDiag  1:
 RMSU=  2.21D-07    CP:  1.00D+00  1.01D+00  5.15D-01  4.95D-01
 E= -969.528608812805     Delta-E=       -0.000000009205 Rises=F Damp=F
 DIIS: error= 5.29D-07 at cycle   5 NSaved=   5.
 NSaved= 5 IEnMin= 5 EnMin= -969.528608812805     IErMin= 5 ErrMin= 5.29D-07
 ErrMax= 5.29D-07  0.00D+00 EMaxC= 1.00D-01 BMatC= 8.38D-11 BMatP= 9.33D-09
 IDIUse=1 WtCom= 1.00D+00 WtEn= 0.00D+00
 Coeff-Com: -0.207D-02 0.161D+00 0.175D+00 0.223D+00 0.442D+00
 Coeff:     -0.207D-02 0.161D+00 0.175D+00 0.223D+00 0.442D+00
 Gap=     0.178 Goal=   None    Shift=    0.000
 RMSDP=8.42D-08 MaxDP=1.94D-06 DE=-9.20D-09 OVMax= 2.93D-06

 Cycle  14  Pass 1  IDiag  1:
 RMSU=  7.12D-08    CP:  1.00D+00  1.01D+00  5.16D-01  4.89D-01  8.04D-01
 E= -969.528608812878     Delta-E=       -0.000000000073 Rises=F Damp=F
 DIIS: error= 1.77D-07 at cycle   6 NSaved=   6.
 NSaved= 6 IEnMin= 6 EnMin= -969.528608812878     IErMin= 6 ErrMin= 1.77D-07
 ErrMax= 1.77D-07  0.00D+00 EMaxC= 1.00D-01 BMatC= 5.13D-12 BMatP= 8.38D-11
 IDIUse=1 WtCom= 1.00D+00 WtEn= 0.00D+00
 Coeff-Com: -0.641D-03 0.476D-01 0.519D-01 0.656D-01 0.221D+00 0.615D+00
 Coeff:     -0.641D-03 0.476D-01 0.519D-01 0.656D-01 0.221D+00 0.615D+00
 Gap=     0.178 Goal=   None    Shift=    0.000
 RMSDP=2.37D-08 MaxDP=4.30D-07 DE=-7.32D-11 OVMax= 9.51D-07

 Cycle  15  Pass 1  IDiag  1:
 RMSU=  1.63D-08    CP:  1.00D+00  1.01D+00  5.15D-01  4.83D-01  8.49D-01
                    CP:  8.37D-01
 E= -969.528608812891     Delta-E=       -0.000000000012 Rises=F Damp=F
 DIIS: error= 7.58D-08 at cycle   7 NSaved=   7.
 NSaved= 7 IEnMin= 7 EnMin= -969.528608812891     IErMin= 7 ErrMin= 7.58D-08
 ErrMax= 7.58D-08  0.00D+00 EMaxC= 1.00D-01 BMatC= 1.35D-12 BMatP= 5.13D-12
 IDIUse=1 WtCom= 1.00D+00 WtEn= 0.00D+00
 Coeff-Com: -0.388D-04 0.171D-02 0.192D-02 0.214D-02 0.578D-01 0.383D+00
 Coeff-Com:  0.554D+00
 Coeff:     -0.388D-04 0.171D-02 0.192D-02 0.214D-02 0.578D-01 0.383D+00
 Coeff:      0.554D+00
 Gap=     0.178 Goal=   None    Shift=    0.000
 RMSDP=1.00D-08 MaxDP=1.79D-07 DE=-1.23D-11 OVMax= 4.48D-07

 Cycle  16  Pass 1  IDiag  1:
 RMSU=  7.51D-09    CP:  1.00D+00  1.01D+00  5.16D-01  4.84D-01  8.43D-01
                    CP:  9.06D-01  8.24D-01
 E= -969.528608812893     Delta-E=       -0.000000000002 Rises=F Damp=F
 DIIS: error= 3.39D-08 at cycle   8 NSaved=   8.
 NSaved= 8 IEnMin= 8 EnMin= -969.528608812893     IErMin= 8 ErrMin= 3.39D-08
 ErrMax= 3.39D-08  0.00D+00 EMaxC= 1.00D-01 BMatC= 1.85D-13 BMatP= 1.35D-12
 IDIUse=1 WtCom= 1.00D+00 WtEn= 0.00D+00
 Coeff-Com:  0.116D-04-0.157D-02-0.169D-02-0.224D-02 0.206D-01 0.198D+00
 Coeff-Com:  0.359D+00 0.428D+00
 Coeff:      0.116D-04-0.157D-02-0.169D-02-0.224D-02 0.206D-01 0.198D+00
 Coeff:      0.359D+00 0.428D+00
 Gap=     0.178 Goal=   None    Shift=    0.000
 RMSDP=4.00D-09 MaxDP=1.07D-07 DE=-2.27D-12 OVMax= 1.96D-07

 SCF Done:  E(RB3LYP) =  -969.528608813     A.U. after   16 cycles
            NFock= 16  Conv=0.40D-08     -V/T= 2.0018
 KE= 9.677721201012D+02 PE=-5.829817573970D+03 EE= 2.105421130462D+03
 Leave Link  502 at Wed Apr  2 18:55:47 2025, MaxMem=  1048576000 cpu:             378.1 elap:             191.3
 (Enter /opt/rit/el9/20230413/app/linux-rhel9-x86_64_v3/gcc-11.2.1/gaussian-16-C.01-3yzt2xlc3n3d45c3wnnzh2wvb3eacy2v/g16/l601.exe)
 Copying SCF densities to generalized density rwf, IOpCl= 0 IROHF=0.

 **********************************************************************

            Population analysis using the SCF Density.

 **********************************************************************

 Orbital symmetries:
       Occupied  (A) (A) (A) (A) (A) (A) (A) (A) (A) (A) (A) (A)
                 (A) (A) (A) (A) (A) (A) (A) (A) (A) (A) (A) (A)
                 (A) (A) (A) (A) (A) (A) (A) (A) (A) (A) (A) (A)
                 (A) (A) (A) (A) (A) (A) (A) (A) (A) (A) (A) (A)
                 (A) (A) (A) (A) (A) (A) (A) (A) (A) (A) (A) (A)
                 (A) (A) (A) (A) (A) (A) (A) (A) (A) (A) (A) (A)
                 (A) (A) (A) (A) (A) (A) (A) (A)
       Virtual   (A) (A) (A) (A) (A) (A) (A) (A) (A) (A) (A) (A)
                 (A) (A) (A) (A) (A) (A) (A) (A) (A) (A) (A) (A)
                 (A) (A) (A) (A) (A) (A) (A) (A) (A) (A) (A) (A)
                 (A) (A) (A) (A) (A) (A) (A) (A) (A) (A) (A) (A)
                 (A) (A) (A) (A) (A) (A) (A) (A) (A) (A) (A) (A)
                 (A) (A) (A) (A) (A) (A) (A) (A) (A) (A) (A) (A)
                 (A) (A) (A) (A) (A) (A) (A) (A) (A) (A) (A) (A)
                 (A) (A) (A) (A) (A) (A) (A) (A) (A) (A) (A) (A)
                 (A) (A) (A) (A) (A) (A) (A) (A) (A) (A) (A) (A)
                 (A) (A) (A) (A) (A) (A) (A) (A) (A) (A) (A) (A)
                 (A) (A) (A) (A) (A) (A) (A) (A) (A) (A) (A) (A)
                 (A) (A) (A) (A) (A) (A) (A) (A) (A) (A) (A) (A)
                 (A) (A) (A) (A) (A) (A) (A) (A) (A) (A) (A) (A)
                 (A) (A) (A) (A) (A)
 The electronic state is 1-A.
 Alpha  occ. eigenvalues --  -14.37427 -14.33345 -14.33338 -14.28593 -14.28574
 Alpha  occ. eigenvalues --  -10.23150 -10.23143 -10.21455 -10.21454 -10.21444
 Alpha  occ. eigenvalues --  -10.21443 -10.20630 -10.20625 -10.18473 -10.18469
 Alpha  occ. eigenvalues --  -10.17882 -10.17871 -10.17652 -10.17639 -10.17450
 Alpha  occ. eigenvalues --  -10.17425 -10.17047 -10.16978  -1.01962  -1.00249
 Alpha  occ. eigenvalues --   -1.00217  -0.89269  -0.89011  -0.85651  -0.85574
 Alpha  occ. eigenvalues --   -0.82206  -0.80564  -0.78541  -0.74893  -0.73448
 Alpha  occ. eigenvalues --   -0.73056  -0.68049  -0.64758  -0.63736  -0.62698
 Alpha  occ. eigenvalues --   -0.61306  -0.58610  -0.58427  -0.55655  -0.55457
 Alpha  occ. eigenvalues --   -0.54818  -0.53058  -0.51527  -0.49549  -0.48671
 Alpha  occ. eigenvalues --   -0.48470  -0.46577  -0.45957  -0.45397  -0.44520
 Alpha  occ. eigenvalues --   -0.44372  -0.42906  -0.42486  -0.41116  -0.40397
 Alpha  occ. eigenvalues --   -0.40236  -0.39852  -0.39459  -0.38599  -0.38301
 Alpha  occ. eigenvalues --   -0.37936  -0.37741  -0.36927  -0.34897  -0.34593
 Alpha  occ. eigenvalues --   -0.33948  -0.32522  -0.29421  -0.26114  -0.23228
 Alpha  occ. eigenvalues --   -0.23041  -0.22446  -0.22091  -0.20259  -0.20200
 Alpha virt. eigenvalues --   -0.02356  -0.02334  -0.01277   0.04594   0.06194
 Alpha virt. eigenvalues --    0.06904   0.07617   0.09974   0.10175   0.11075
 Alpha virt. eigenvalues --    0.11744   0.11879   0.12182   0.12933   0.13785
 Alpha virt. eigenvalues --    0.15432   0.15484   0.16265   0.17379   0.17862
 Alpha virt. eigenvalues --    0.19239   0.19499   0.19854   0.20318   0.20892
 Alpha virt. eigenvalues --    0.21297   0.21598   0.23133   0.24593   0.25734
 Alpha virt. eigenvalues --    0.27429   0.27706   0.28633   0.29087   0.31015
 Alpha virt. eigenvalues --    0.31258   0.33654   0.36080   0.36346   0.37270
 Alpha virt. eigenvalues --    0.39961   0.40238   0.42461   0.44221   0.45168
 Alpha virt. eigenvalues --    0.48115   0.49192   0.50832   0.51908   0.52739
 Alpha virt. eigenvalues --    0.54474   0.55014   0.55307   0.55599   0.56389
 Alpha virt. eigenvalues --    0.57053   0.57462   0.57764   0.58764   0.59049
 Alpha virt. eigenvalues --    0.59245   0.59724   0.60270   0.60662   0.61276
 Alpha virt. eigenvalues --    0.61587   0.62049   0.62652   0.62933   0.64193
 Alpha virt. eigenvalues --    0.64583   0.65121   0.65465   0.65795   0.65975
 Alpha virt. eigenvalues --    0.67159   0.67297   0.67548   0.68838   0.71011
 Alpha virt. eigenvalues --    0.71320   0.73352   0.74440   0.74500   0.75106
 Alpha virt. eigenvalues --    0.75516   0.76871   0.77838   0.78175   0.79259
 Alpha virt. eigenvalues --    0.80782   0.82103   0.82151   0.83222   0.83494
 Alpha virt. eigenvalues --    0.84378   0.84458   0.84574   0.84672   0.85239
 Alpha virt. eigenvalues --    0.86025   0.86869   0.87240   0.87457   0.88049
 Alpha virt. eigenvalues --    0.88340   0.88484   0.90653   0.91683   0.92072
 Alpha virt. eigenvalues --    0.93002   0.93547   0.94966   0.95719   0.96078
 Alpha virt. eigenvalues --    0.99298   1.00884   1.01895   1.04594   1.05136
 Alpha virt. eigenvalues --    1.05229   1.06820   1.07094   1.09778   1.10357
 Alpha virt. eigenvalues --    1.11098   1.12087   1.12732   1.14711   1.17186
 Alpha virt. eigenvalues --    1.20092   1.20914   1.23541   1.25965   1.26047
 Alpha virt. eigenvalues --    1.27729   1.32726   1.33889   1.34991   1.35913
 Alpha virt. eigenvalues --    1.39077   1.39924   1.40360   1.44357   1.48627
 Alpha virt. eigenvalues --    1.53814   1.54308   1.55849   1.60414   1.60695
 Alpha virt. eigenvalues --    1.61343   1.63806   1.66631   1.68690   1.76565
 Alpha virt. eigenvalues --    1.77971   1.87226   2.01144   2.03648   2.04262
 Alpha virt. eigenvalues --    2.06572
          Condensed to atoms (all electrons):
               1          2          3          4          5          6
     1  C    5.126886   0.268561  -0.063159   0.003757   0.000268   0.000069
     2  N    0.268561   7.466875   0.164976  -0.164008   0.015852   0.000624
     3  C   -0.063159   0.164976   5.510381  -0.264897   0.043200  -0.005568
     4  C    0.003757  -0.164008  -0.264897   5.596869   0.444751  -0.037733
     5  C    0.000268   0.015852   0.043200   0.444751   5.086512   0.350337
     6  H    0.000069   0.000624  -0.005568  -0.037733   0.350337   0.543785
     7  C    0.000011  -0.000150   0.021077  -0.033873   0.447038  -0.037922
     8  C    0.000000  -0.000043   0.004337  -0.029958  -0.051579   0.005588
     9  N    0.000000  -0.000000  -0.000011  -0.000298   0.007476  -0.000149
    10  C   -0.000000  -0.000000   0.000014  -0.001633  -0.000667   0.000013
    11  C    0.000000  -0.000025  -0.001362   0.017846   0.004981  -0.000041
    12  C   -0.000013   0.002167   0.015350   0.052788  -0.025189   0.000619
    13  C    0.000108  -0.016770  -0.062527   0.386721  -0.156799   0.006293
    14  H    0.000221   0.002787  -0.011385  -0.046191   0.003467  -0.000180
    15  C   -0.000000   0.000006   0.000038   0.000634   0.000042  -0.000000
    16  C    0.000000   0.000000  -0.000000   0.000007   0.000001   0.000000
    17  C   -0.000000  -0.000000   0.000000  -0.000000   0.000000  -0.000000
    18  N   -0.000000  -0.000000  -0.000000   0.000000  -0.000000   0.000000
    19  C   -0.000000  -0.000000  -0.000000   0.000000  -0.000000   0.000000
    20  C    0.000000  -0.000000   0.000000  -0.000000   0.000000  -0.000000
    21  N   -0.000000  -0.000000   0.000000  -0.000000  -0.000000  -0.000000
    22  H    0.000000   0.000000  -0.000000   0.000000   0.000000   0.000000
    23  H   -0.000000  -0.000000  -0.000000   0.000000  -0.000000  -0.000000
    24  H    0.000000  -0.000000  -0.000000   0.000000  -0.000000  -0.000000
    25  H   -0.000000  -0.000000   0.000000  -0.000000   0.000000  -0.000000
    26  H    0.000000   0.000000   0.000000  -0.000000   0.000000   0.000000
    27  C   -0.000000  -0.000000   0.000000   0.000001  -0.000000   0.000000
    28  C   -0.000000   0.000000   0.000000  -0.000008   0.000009   0.000000
    29  H   -0.000000  -0.000000   0.000000  -0.000000  -0.000000  -0.000000
    30  H    0.000000   0.000000  -0.000000   0.000000   0.000000  -0.000000
    31  H   -0.000000  -0.000018   0.000014  -0.000062   0.000000  -0.000000
    32  H    0.000000   0.000000   0.000000   0.000019  -0.000062  -0.000003
    33  H   -0.000000   0.000001  -0.000395   0.002633  -0.019393  -0.005038
    34  N   -0.090475  -0.235625   0.584160  -0.087687   0.000732   0.015121
    35  C    0.264609  -0.096093  -0.097084   0.024662  -0.000999  -0.000296
    36  H   -0.040033   0.005268   0.000105  -0.000173  -0.000019  -0.000018
    37  H   -0.033745   0.002283   0.000491  -0.000945   0.000029  -0.000001
    38  H   -0.039796   0.288613  -0.021419  -0.006508  -0.000764  -0.000035
    39  H    0.363338  -0.045936   0.004106  -0.000024  -0.000003  -0.000001
    40  H    0.376562  -0.073885   0.006486  -0.000710  -0.000021  -0.000003
               7          8          9         10         11         12
     1  C    0.000011   0.000000   0.000000  -0.000000   0.000000  -0.000013
     2  N   -0.000150  -0.000043  -0.000000  -0.000000  -0.000025   0.002167
     3  C    0.021077   0.004337  -0.000011   0.000014  -0.001362   0.015350
     4  C   -0.033873  -0.029958  -0.000298  -0.001633   0.017846   0.052788
     5  C    0.447038  -0.051579   0.007476  -0.000667   0.004981  -0.025189
     6  H   -0.037922   0.005588  -0.000149   0.000013  -0.000041   0.000619
     7  C    5.166504   0.421797  -0.080037   0.005133   0.030033  -0.042870
     8  C    0.421797   5.120024   0.160633  -0.149527   0.090416   0.375286
     9  N   -0.080037   0.160633   7.417718   0.159428  -0.102355  -0.102566
    10  C    0.005133  -0.149527   0.159428   5.120631   0.375946   0.090069
    11  C    0.030033   0.090416  -0.102355   0.375946   5.484988  -0.095464
    12  C   -0.042870   0.375286  -0.102566   0.090069  -0.095464   5.488012
    13  C   -0.083165  -0.155610   0.015771   0.031488  -0.086392   0.326609
    14  H    0.000690   0.006287  -0.000233   0.000302  -0.010937  -0.028229
    15  C   -0.000843   0.031574   0.015731  -0.155890   0.328205  -0.086213
    16  C   -0.000008  -0.001650  -0.000279  -0.029667   0.053930   0.017852
    17  C    0.000000   0.000013  -0.000011   0.004371   0.015347  -0.001367
    18  N    0.000000  -0.000000  -0.000000  -0.000046   0.002220  -0.000023
    19  C    0.000000   0.000000  -0.000000  -0.000000  -0.000006   0.000000
    20  C   -0.000000   0.000000   0.000000   0.000001   0.000003  -0.000000
    21  N    0.000000   0.000000   0.000000   0.000003  -0.000449   0.000002
    22  H   -0.000000  -0.000000   0.000000   0.000000  -0.000000   0.000000
    23  H    0.000000   0.000000  -0.000000  -0.000000  -0.000000  -0.000000
    24  H    0.000000   0.000000   0.000000   0.000000  -0.000000  -0.000000
    25  H   -0.000000   0.000000  -0.000000  -0.000000  -0.000000   0.000000
    26  H   -0.000000  -0.000000   0.000000  -0.000007  -0.000447   0.000020
    27  C    0.000009  -0.000661   0.007456  -0.051495  -0.025018   0.004986
    28  C   -0.000808   0.005091  -0.080025   0.421623  -0.043243   0.030072
    29  H    0.000022   0.000837  -0.006282  -0.029816   0.004888  -0.001059
    30  H    0.000000   0.000013  -0.000151   0.005624   0.000633  -0.000042
    31  H    0.000018   0.000302  -0.000243   0.006299  -0.027937  -0.010839
    32  H   -0.004098  -0.024612   0.327268  -0.024469   0.004365   0.004398
    33  H    0.326725  -0.029875  -0.006328   0.000842  -0.001066   0.004952
    34  N    0.001495   0.000001   0.000000   0.000000   0.000002  -0.000442
    35  C   -0.000019   0.000001  -0.000000   0.000000  -0.000000   0.000005
    36  H   -0.000000  -0.000000  -0.000000  -0.000000   0.000000  -0.000000
    37  H    0.000000   0.000000   0.000000   0.000000  -0.000000  -0.000000
    38  H    0.000005  -0.000016  -0.000000   0.000000   0.000030  -0.000392
    39  H   -0.000000  -0.000000   0.000000  -0.000000   0.000000  -0.000001
    40  H   -0.000000   0.000000   0.000000   0.000000  -0.000000   0.000000
              13         14         15         16         17         18
     1  C    0.000108   0.000221  -0.000000   0.000000  -0.000000  -0.000000
     2  N   -0.016770   0.002787   0.000006   0.000000  -0.000000  -0.000000
     3  C   -0.062527  -0.011385   0.000038  -0.000000   0.000000  -0.000000
     4  C    0.386721  -0.046191   0.000634   0.000007  -0.000000   0.000000
     5  C   -0.156799   0.003467   0.000042   0.000001   0.000000  -0.000000
     6  H    0.006293  -0.000180  -0.000000   0.000000  -0.000000   0.000000
     7  C   -0.083165   0.000690  -0.000843  -0.000008   0.000000   0.000000
     8  C   -0.155610   0.006287   0.031574  -0.001650   0.000013  -0.000000
     9  N    0.015771  -0.000233   0.015731  -0.000279  -0.000011  -0.000000
    10  C    0.031488   0.000302  -0.155890  -0.029667   0.004371  -0.000046
    11  C   -0.086392  -0.010937   0.328205   0.053930   0.015347   0.002220
    12  C    0.326609  -0.028229  -0.086213   0.017852  -0.001367  -0.000023
    13  C    5.552242   0.331251  -0.042557   0.000646   0.000039   0.000005
[...]
    13  C    5.250747   0.335850  -0.014163   0.000175   0.000004   0.000001
    14  H    0.335850   0.593221   0.002098  -0.000024   0.000000  -0.000002
    15  C   -0.014163   0.002098   5.250767   0.457486  -0.051605  -0.010666
    16  C    0.000175  -0.000024   0.457486   5.136339   0.144293  -0.109534
    17  C    0.000004   0.000000  -0.051605   0.144293   5.051774   0.152969
    18  N    0.000001  -0.000002  -0.010666  -0.109534   0.152969   7.396698
    19  C    0.000000  -0.000000   0.000252   0.002421  -0.073996   0.262290
    20  C   -0.000000   0.000000  -0.000159   0.018436  -0.078157  -0.092488
    21  N   -0.000000  -0.000000   0.003409  -0.083507   0.541871  -0.165164
    22  H   -0.000000   0.000000   0.000001  -0.000242   0.000480   0.005189
    23  H    0.000000  -0.000000   0.000020  -0.000547   0.000036   0.003099
    24  H    0.000000  -0.000000   0.000033  -0.000303   0.004838  -0.058121
    25  H   -0.000000   0.000000  -0.000023  -0.000024   0.003243  -0.044393
    26  H   -0.000003   0.000001   0.004024  -0.001708  -0.012735   0.296418
    27  C    0.000020   0.000001  -0.091997   0.473267   0.002626   0.008004
    28  C   -0.000267   0.000005  -0.050483  -0.042846   0.010535  -0.000109
    29  H    0.000000   0.000000   0.001140   0.002847  -0.000209   0.000001
    30  H   -0.000000  -0.000000   0.004530  -0.037782  -0.003766   0.000542
    31  H    0.002098   0.002011   0.335845  -0.040750  -0.008883   0.005279
    32  H   -0.000102   0.000003  -0.000101   0.000003   0.000000   0.000000
    33  H    0.001140   0.000018   0.000000  -0.000000   0.000000  -0.000000
    34  N    0.003410   0.000103  -0.000000  -0.000000  -0.000000   0.000000
    35  C   -0.000159   0.000027  -0.000000  -0.000000   0.000000  -0.000000
    36  H    0.000001  -0.000001  -0.000000   0.000000  -0.000000   0.000000
    37  H    0.000020   0.000002   0.000000   0.000000   0.000000  -0.000000
    38  H    0.004022   0.001884  -0.000003   0.000000  -0.000000   0.000000
    39  H   -0.000023  -0.000030  -0.000000  -0.000000   0.000000  -0.000000
    40  H    0.000033   0.000027   0.000000   0.000000  -0.000000  -0.000000
              19         20         21         22         23         24
     1  C    0.000000  -0.000000  -0.000000  -0.000000   0.000000   0.000000
     2  N    0.000000  -0.000000   0.000000   0.000000  -0.000000  -0.000000
     3  C   -0.000000   0.000000  -0.000000  -0.000000   0.000000  -0.000000
     4  C    0.000000  -0.000000  -0.000000   0.000000   0.000000   0.000000
     5  C   -0.000000   0.000000   0.000000   0.000000  -0.000000  -0.000000
     6  H   -0.000000  -0.000000   0.000000   0.000000  -0.000000  -0.000000
     7  C    0.000000  -0.000000   0.000000  -0.000000   0.000000   0.000000
     8  C    0.000000   0.000000   0.000000  -0.000000   0.000000   0.000000
     9  N   -0.000000  -0.000000   0.000000  -0.000000   0.000000   0.000000
    10  C    0.000000   0.000001  -0.000004  -0.000000  -0.000000   0.000000
    11  C    0.000002   0.000001  -0.000160  -0.000000   0.000000   0.000000
    12  C   -0.000000  -0.000000   0.000000   0.000000  -0.000000  -0.000000
    13  C    0.000000  -0.000000  -0.000000  -0.000000   0.000000   0.000000
    14  H   -0.000000   0.000000  -0.000000   0.000000  -0.000000  -0.000000
    15  C    0.000252  -0.000159   0.003409   0.000001   0.000020   0.000033
    16  C    0.002421   0.018436  -0.083507  -0.000242  -0.000547  -0.000303
    17  C   -0.073996  -0.078157   0.541871   0.000480   0.000036   0.004838
    18  N    0.262290  -0.092488  -0.165164   0.005189   0.003099  -0.058121
    19  C    5.056274   0.280882  -0.064985  -0.037929  -0.036715   0.371215
    20  C    0.280882   5.068311   0.288840   0.370865   0.365619  -0.028749
    21  N   -0.064985   0.288840   6.941552  -0.039801  -0.043581   0.004264
    22  H   -0.037929   0.370865  -0.039801   0.603351  -0.045158  -0.009052
    23  H   -0.036715   0.365619  -0.043581  -0.045158   0.605201   0.005001
    24  H    0.371215  -0.028749   0.004264  -0.009052   0.005001   0.623156
    25  H    0.369318  -0.027503   0.003654   0.003850  -0.008197  -0.048549
    26  H   -0.028778   0.005572   0.005379   0.000006  -0.000297  -0.003135
    27  C    0.000086  -0.000610   0.001825  -0.000005   0.000029   0.000002
    28  C    0.000005  -0.000011   0.000951  -0.000000   0.000000  -0.000000
    29  H   -0.000000  -0.000000  -0.000003   0.000000  -0.000000   0.000000
    30  H    0.000059  -0.000247   0.013358  -0.000027   0.000008  -0.000001
    31  H    0.000067   0.000026   0.000103  -0.000001   0.000002   0.000027
    32  H    0.000000  -0.000000   0.000000   0.000000  -0.000000  -0.000000
    33  H    0.000000   0.000000  -0.000000  -0.000000  -0.000000   0.000000
    34  N   -0.000000  -0.000000  -0.000000   0.000000   0.000000  -0.000000
    35  C   -0.000000   0.000000  -0.000000   0.000000   0.000000  -0.000000
    36  H   -0.000000   0.000000   0.000000   0.000000   0.000000  -0.000000
    37  H    0.000000   0.000000   0.000000   0.000000   0.000000   0.000000
    38  H    0.000000   0.000000  -0.000000  -0.000000   0.000000   0.000000
    39  H   -0.000000   0.000000   0.000000   0.000000  -0.000000   0.000000
    40  H    0.000000  -0.000000  -0.000000  -0.000000   0.000000  -0.000000
              25         26         27         28         29         30
     1  C   -0.000000   0.000000  -0.000000   0.000000   0.000000  -0.000000
     2  N   -0.000000   0.000000  -0.000000   0.000000  -0.000000  -0.000000
     3  C    0.000000  -0.000000  -0.000000  -0.000000   0.000000  -0.000000
     4  C   -0.000000   0.000000   0.000000  -0.000002  -0.000000   0.000000
     5  C    0.000000   0.000000   0.000000   0.000001  -0.000000   0.000000
     6  H    0.000000   0.000000   0.000000   0.000000  -0.000000  -0.000000
     7  C   -0.000000  -0.000000   0.000001  -0.000210   0.000009   0.000000
     8  C    0.000000   0.000000  -0.000370   0.004797   0.000342   0.000004
     9  N    0.000000  -0.000000   0.006044  -0.069258  -0.005764  -0.000097
    10  C   -0.000000  -0.000002  -0.028883   0.468885  -0.035627   0.003221
    11  C   -0.000001  -0.000296  -0.027517  -0.036324   0.003581   0.000762
    12  C    0.000000  -0.000001   0.001599   0.009905  -0.000443  -0.000005
    13  C   -0.000000  -0.000003   0.000020  -0.000267   0.000000  -0.000000
    14  H    0.000000   0.000001   0.000001   0.000005   0.000000  -0.000000
    15  C   -0.000023   0.004024  -0.091997  -0.050483   0.001140   0.004530
    16  C   -0.000024  -0.001708   0.473267  -0.042846   0.002847  -0.037782
    17  C    0.003243  -0.012735   0.002626   0.010535  -0.000209  -0.003766
    18  N   -0.044393   0.296418   0.008004  -0.000109   0.000001   0.000542
    19  C    0.369318  -0.028778   0.000086   0.000005  -0.000000   0.000059
    20  C   -0.027503   0.005572  -0.000610  -0.000011  -0.000000  -0.000247
    21  N    0.003654   0.005379   0.001825   0.000951  -0.000003   0.013358
    22  H    0.003850   0.000006  -0.000005  -0.000000   0.000000  -0.000027
    23  H   -0.008197  -0.000297   0.000029   0.000000  -0.000000   0.000008
    24  H   -0.048549  -0.003135   0.000002  -0.000000   0.000000  -0.000001
    25  H    0.598134   0.002050  -0.000002  -0.000000   0.000000  -0.000001
    26  H    0.002050   0.433034  -0.000389  -0.000002   0.000000  -0.000032
    27  C   -0.000002  -0.000389   5.027837   0.456777  -0.024451   0.354207
    28  C   -0.000000  -0.000002   0.456777   5.047619   0.343045  -0.032579
    29  H    0.000000   0.000000  -0.024451   0.343045   0.586240  -0.003345
    30  H   -0.000001  -0.000032   0.354207  -0.032579  -0.003345   0.534115
    31  H   -0.000030   0.001885   0.003990   0.000573   0.000018  -0.000164
    32  H    0.000000   0.000000   0.000015  -0.001780   0.002038  -0.000001
    33  H   -0.000000  -0.000000  -0.000000   0.000009   0.000000  -0.000000
    34  N    0.000000  -0.000000   0.000000   0.000000  -0.000000   0.000000
    35  C    0.000000   0.000000   0.000000  -0.000000   0.000000  -0.000000
    36  H    0.000000  -0.000000   0.000000  -0.000000  -0.000000   0.000000
    37  H   -0.000000   0.000000  -0.000000   0.000000  -0.000000  -0.000000
    38  H    0.000000  -0.000000   0.000000  -0.000000  -0.000000   0.000000
    39  H   -0.000000   0.000000   0.000000  -0.000000  -0.000000   0.000000
    40  H    0.000000   0.000000  -0.000000   0.000000   0.000000  -0.000000
              31         32         33         34         35         36
     1  C   -0.000000   0.000000  -0.000000  -0.064984   0.280881  -0.037927
     2  N   -0.000002   0.000000   0.000001  -0.165169  -0.092489   0.005190
     3  C    0.000000   0.000000  -0.000209   0.541872  -0.078155   0.000478
     4  C   -0.000024   0.000003   0.002847  -0.083511   0.018436  -0.000242
     5  C    0.000001   0.000015  -0.024451   0.001826  -0.000610  -0.000005
     6  H   -0.000000  -0.000001  -0.003345   0.013357  -0.000247  -0.000027
     7  C    0.000005  -0.001780   0.343044   0.000951  -0.000011  -0.000000
     8  C    0.000136  -0.020594  -0.035627  -0.000004   0.000001  -0.000000
     9  N   -0.000180   0.325808  -0.005764   0.000000  -0.000000  -0.000000
    10  C    0.004519  -0.020594   0.000342   0.000000   0.000000  -0.000000
    11  C   -0.027477   0.004009  -0.000443   0.000000  -0.000000   0.000000
    12  C   -0.005327   0.004009   0.003581  -0.000160   0.000001  -0.000000
    13  C    0.002098  -0.000102   0.001140   0.003410  -0.000159   0.000001
    14  H    0.002011   0.000003   0.000018   0.000103   0.000027  -0.000001
    15  C    0.335845  -0.000101   0.000000  -0.000000  -0.000000  -0.000000
    16  C   -0.040750   0.000003  -0.000000  -0.000000  -0.000000   0.000000
    17  C   -0.008883   0.000000   0.000000  -0.000000   0.000000  -0.000000
    18  N    0.005279   0.000000  -0.000000   0.000000  -0.000000   0.000000
    19  C    0.000067   0.000000   0.000000  -0.000000  -0.000000  -0.000000
    20  C    0.000026  -0.000000   0.000000  -0.000000   0.000000   0.000000
    21  N    0.000103   0.000000  -0.000000  -0.000000  -0.000000   0.000000
    22  H   -0.000001   0.000000  -0.000000   0.000000   0.000000   0.000000
    23  H    0.000002  -0.000000  -0.000000   0.000000   0.000000   0.000000
    24  H    0.000027  -0.000000   0.000000  -0.000000  -0.000000  -0.000000
    25  H   -0.000030   0.000000  -0.000000   0.000000   0.000000   0.000000
    26  H    0.001885   0.000000  -0.000000  -0.000000   0.000000  -0.000000
    27  C    0.003990   0.000015  -0.000000   0.000000   0.000000   0.000000
    28  C    0.000573  -0.001780   0.000009   0.000000  -0.000000  -0.000000
    29  H    0.000018   0.002038   0.000000  -0.000000   0.000000  -0.000000
    30  H   -0.000164  -0.000001  -0.000000   0.000000  -0.000000   0.000000
    31  H    0.593222   0.000003   0.000000  -0.000000   0.000000   0.000000
    32  H    0.000003   0.390965   0.002038   0.000000  -0.000000   0.000000
    33  H    0.000000   0.002038   0.586241  -0.000003  -0.000000   0.000000
    34  N   -0.000000   0.000000  -0.000003   6.941541   0.288842  -0.039806
    35  C    0.000000  -0.000000  -0.000000   0.288842   5.068309   0.370858
    36  H    0.000000   0.000000   0.000000  -0.039806   0.370858   0.603360
    37  H   -0.000000  -0.000000  -0.000000  -0.043575   0.365628  -0.045159
    38  H    0.000001   0.000000   0.000000   0.005378   0.005572   0.000006
    39  H    0.000000   0.000000   0.000000   0.003654  -0.027511   0.003851
    40  H   -0.000000  -0.000000   0.000000   0.004264  -0.028740  -0.009053
              37         38         39         40
     1  C   -0.036717  -0.028781   0.369324   0.371211
     2  N    0.003098   0.296418  -0.044398  -0.058108
     3  C    0.000038  -0.012740   0.003242   0.004838
     4  C   -0.000547  -0.001708  -0.000024  -0.000303
     5  C    0.000029  -0.000389  -0.000002   0.000002
     6  H    0.000008  -0.000032  -0.000001  -0.000001
     7  C    0.000000  -0.000002  -0.000000  -0.000000
     8  C   -0.000000  -0.000002  -0.000000   0.000000
     9  N    0.000000  -0.000000   0.000000   0.000000
    10  C    0.000000   0.000000   0.000000   0.000000
    11  C   -0.000000  -0.000001   0.000000  -0.000000
    12  C    0.000000  -0.000296  -0.000001   0.000000
    13  C    0.000020   0.004022  -0.000023   0.000033
    14  H    0.000002   0.001884  -0.000030   0.000027
    15  C    0.000000  -0.000003  -0.000000   0.000000
    16  C    0.000000   0.000000  -0.000000   0.000000
    17  C    0.000000  -0.000000   0.000000  -0.000000
    18  N   -0.000000   0.000000  -0.000000  -0.000000
    19  C    0.000000   0.000000  -0.000000   0.000000
    20  C    0.000000   0.000000   0.000000  -0.000000
    21  N    0.000000  -0.000000   0.000000  -0.000000
    22  H    0.000000  -0.000000   0.000000  -0.000000
    23  H    0.000000   0.000000  -0.000000   0.000000
    24  H    0.000000   0.000000   0.000000  -0.000000
    25  H   -0.000000   0.000000  -0.000000   0.000000
    26  H    0.000000  -0.000000   0.000000   0.000000
    27  C   -0.000000   0.000000   0.000000  -0.000000
    28  C    0.000000  -0.000000  -0.000000   0.000000
    29  H   -0.000000  -0.000000  -0.000000   0.000000
    30  H   -0.000000   0.000000   0.000000  -0.000000
    31  H   -0.000000   0.000001   0.000000  -0.000000
    32  H   -0.000000   0.000000   0.000000  -0.000000
    33  H   -0.000000   0.000000   0.000000   0.000000
    34  N   -0.043575   0.005378   0.003654   0.004264
    35  C    0.365628   0.005572  -0.027511  -0.028740
    36  H   -0.045159   0.000006   0.003851  -0.009053
    37  H    0.605188  -0.000297  -0.008197   0.005000
    38  H   -0.000297   0.433050   0.002052  -0.003137
    39  H   -0.008197   0.002052   0.598135  -0.048548
    40  H    0.005000  -0.003137  -0.048548   0.623142
 Mulliken charges:
               1
     1  C   -0.100483
     2  N   -0.650996
     3  C    0.308432
     4  C    0.096943
     5  C   -0.162105
     6  H    0.167238
     7  C   -0.109239
     8  C    0.291130
     9  N   -0.841057
    10  C    0.291124
    11  C   -0.008784
    12  C   -0.008785
    13  C   -0.145431
    14  H    0.133025
    15  C   -0.145438
    16  C    0.096950
    17  C    0.308467
    18  N   -0.651023
    19  C   -0.100469
    20  C   -0.170629
    21  N   -0.408002
    22  H    0.148475
    23  H    0.155480
    24  H    0.139374
    25  H    0.148471
    26  H    0.299008
    27  C   -0.162105
    28  C   -0.109238
    29  H    0.130581
    30  H    0.167242
    31  H    0.133025
    32  H    0.316046
    33  H    0.130580
    34  N   -0.407986
    35  C   -0.170632
    36  H    0.148477
    37  H    0.155481
    38  H    0.299005
    39  H    0.148477
    40  H    0.139373
 Sum of Mulliken charges =  -0.00000
 Mulliken charges with hydrogens summed into heavy atoms:
               1
     1  C    0.187367
     2  N   -0.351991
     3  C    0.308432
     4  C    0.096943
     5  C    0.005134
     7  C    0.021341
     8  C    0.291130
     9  N   -0.525011
    10  C    0.291124
    11  C   -0.008784
    12  C   -0.008785
    13  C   -0.012406
    15  C   -0.012413
    16  C    0.096950
    17  C    0.308467
    18  N   -0.352015
    19  C    0.187376
    20  C    0.133325
    21  N   -0.408002
    27  C    0.005137
    28  C    0.021343
    34  N   -0.407986
    35  C    0.133326
 Electronic spatial extent (au):  <R**2>=          10724.8833
 Charge=             -0.0000 electrons
 Dipole moment (field-independent basis, Debye):
    X=              0.0006    Y=             -1.4938    Z=              0.0006  Tot=              1.4938
 Quadrupole moment (field-independent basis, Debye-Ang):
   XX=           -148.1675   YY=           -101.5511   ZZ=           -136.6762
   XY=             -0.0002   XZ=            -12.2820   YZ=              0.0068
 Traceless Quadrupole moment (field-independent basis, Debye-Ang):
   XX=            -19.3692   YY=             27.2472   ZZ=             -7.8779
   XY=             -0.0002   XZ=            -12.2820   YZ=              0.0068
 Octapole moment (field-independent basis, Debye-Ang**2):
  XXX=              0.0310  YYY=             46.2238  ZZZ=             -0.0005  XYY=             -0.0019
  XXY=           -116.5328  XXZ=             -0.0100  XZZ=              0.0030  YZZ=            -18.2250
  YYZ=              0.0244  XYZ=             13.1812
 Hexadecapole moment (field-independent basis, Debye-Ang**3):
 XXXX=         -11728.1835 YYYY=          -2495.0152 ZZZZ=           -197.3018 XXXY=             -0.0189
 XXXZ=           -264.3598 YYYX=              0.0054 YYYZ=              0.1080 ZZZX=            -13.1073
 ZZZY=              0.0080 XXYY=          -2013.3582 XXZZ=          -1961.5089 YYZZ=           -535.9287
 XXYZ=             -0.0001 YYXZ=            -29.7582 ZZXY=             -0.0134
 N-N= 1.714434824777D+03 E-N=-5.682190798733D+03  KE= 9.643390337674D+02
 No NMR shielding tensors so no spin-rotation constants.
 Leave Link  601 at Wed Apr  2 19:37:34 2025, MaxMem=  1048576000 cpu:               1.9 elap:               1.0
 (Enter /opt/rit/el9/20230413/app/linux-rhel9-x86_64_v3/gcc-11.2.1/gaussian-16-C.01-3yzt2xlc3n3d45c3wnnzh2wvb3eacy2v/g16/l9999.exe)
 Unable to Open any file for archive entry.
 1\1\GINC-NOVA20-BIOCRUNCH-12\FOpt\RB3LYP\6-31G\C18H17N5\HGATES\02-Apr-
 2025\0\\#p B3LYP/6-31G Opt\\Geometry Optimization\\0,1\C,0.1800698806,
 0.0616500099,-0.3901693151\N,0.1872998694,0.2900335593,1.0703216823\C,
 1.4674837015,0.0054511354,1.561592147\C,1.8189674435,0.2755497801,2.96
 42687109\C,3.1867796115,0.267039377,3.3334842771\H,3.9149392122,0.0525
 690962,2.5605225447\C,3.5901265002,0.5211122319,4.6403220439\C,2.59888
 47289,0.784601504,5.5931224425\N,2.7155821172,1.0672982135,6.953510690
 8\C,1.4480290866,1.2493453446,7.5052042326\C,0.4810771705,1.0769582682
 ,6.4735091207\C,1.2158879032,0.7863758722,5.2518900309\C,0.834565657,0
 .5283036069,3.9309415138\H,-0.2169050344,0.4912379114,3.6648104314\C,-
 0.8779970231,1.2085410141,6.7776897058\C,-1.2664080643,1.5044100291,8.
 0925988147\C,-2.6832165271,1.645884665,8.4622372555\N,-3.6999406401,1.
 1944668171,7.6115526331\C,-4.9953451307,1.3278734983,8.3110866799\C,-4
 .5796294578,2.1716860443,9.5634546099\N,-3.0867434932,2.1999219957,9.5
 704582363\H,-4.9515867751,1.7478502915,10.5010659413\H,-4.9529054181,3
 .1999873636,9.492346915\H,-5.3992623491,0.3454815069,8.5928031317\H,-5
 .7362166513,1.8382218781,7.6882306114\H,-3.542485423,0.4418044372,6.95
 89976417\C,-0.2832611516,1.6836600128,9.096888121\C,1.0738209448,1.557
 5767752,8.8185139445\H,1.8144290204,1.6953148014,9.5994648227\H,-0.623
 7945242,1.9261868913,10.0963392079\H,-1.6231136396,1.1152809444,5.9941
 747088\H,3.5822728008,1.1295955029,7.4600179053\H,4.6419939996,0.51369
 8383,4.9065479426\N,2.2930278005,-0.5181240472,0.7000357266\C,1.559563
 0626,-0.6517011062,-0.5936897921\H,2.1469393584,-0.2122021662,-1.40544
 21145\H,1.4277477657,-1.7167036008,-0.8177006403\H,-0.3835207867,1.012
 9629701,1.4810149447\H,-0.6647724892,-0.5640546609,-0.6935397357\H,0.1
 223922848,1.0103731489,-0.9417082871\\Version=ES64L-G16RevC.01\State=1
 -A\HF=-969.6523701\RMSD=6.134e-09\RMSF=9.461e-06\Dipole=-0.5063375,-0.
 0370946,-0.2960219\Quadrupole=11.7745837,-9.5667259,-2.2078579,6.68247
 47,13.6883301,-7.7370655\PG=C01 [X(C18H17N5)]\\@
 The archive entry for this job was punched.


 CLIMB THE MOUNTAINS AND GET THEIR GOOD TIDINGS.
 NATURE'S PEACE WILL FLOW INTO YOU AS SUNSHINE FLOWS INTO TREES.
 THE WINDS WILL BLOW THEIR OWN FRESHNESS INTO YOU, 
 AND CARES WILL DROP OFF LIKE AUTUMN LEAVES.

                                         -- JOHN MUIR
 Job cpu time:       0 days  1 hours 29 minutes 16.9 seconds.
 Elapsed time:       0 days  0 hours 45 minutes  9.7 seconds.
 File lengths (MBytes):  RWF=     56 Int=      0 D2E=      0 Chk=      7 Scr=      2
 Normal termination of Gaussian 16 at Wed Apr  2 19:37:34 2025.
