Geometry Optimization                                                   
FOpt      RB3LYP                                                      6-31G               
Number of atoms                            I               40
Info1-9                                    I   N=           9
          49          49           0           0           0         110
           2          18        -502
Full Title                                 C   N=           2
Geometry Optimization   
Route                                      C   N=           2
#p B3LYP/6-31G Opt      
Charge                                     I                0
Multiplicity                               I                1
Number of electrons                        I              160
Number of alpha electrons                  I               80
Number of beta electrons                   I               80
Number of basis functions                  I              241
Number of independent functions            I              241
Number of point charges in /Mol/           I                0
Number of translation vectors              I                0
Atomic numbers                             I   N=          40
           6           7           6           6           6           1
           6           6           7           6           6           6
           6           1           6           6           6           7
           6           6           7           1           1           1
           1           1           6           6           1           1
           1           1           1           7           6           1
           1           1           1           1
Nuclear charges                            R   N=          40
  6.00000000E+00  7.00000000E+00  6.00000000E+00  6.00000000E+00  6.00000000E+00
  1.00000000E+00  6.00000000E+00  6.00000000E+00  7.00000000E+00  6.00000000E+00
  6.00000000E+00  6.00000000E+00  6.00000000E+00  1.00000000E+00  6.00000000E+00
  6.00000000E+00  6.00000000E+00  7.00000000E+00  6.00000000E+00  6.00000000E+00
  7.00000000E+00  1.00000000E+00  1.00000000E+00  1.00000000E+00  1.00000000E+00
  1.00000000E+00  6.00000000E+00  6.00000000E+00  1.00000000E+00  1.00000000E+00
  1.00000000E+00  1.00000000E+00  1.00000000E+00  7.00000000E+00  6.00000000E+00
  1.00000000E+00  1.00000000E+00  1.00000000E+00  1.00000000E+00  1.00000000E+00
Current cartesian coordinates              R   N=         120
  9.61542893E+00 -5.37614305E+00 -6.93632665E-01  7.21809307E+00 -3.94785858E+00
 -5.65426675E-01  7.76495275E+00 -1.42941680E+00  3.62242100E-02  5.77279043E+00
  5.09412192E-01  3.58285267E-02  6.49545548E+00  3.08711739E+00  7.32343037E-02
  8.49767076E+00  3.51214264E+00  1.15521917E-01  4.71096572E+00  5.01732855E+00
  6.18440585E-02  2.15379835E+00  4.34077702E+00  1.94051927E-02 -1.43498040E-05
  5.85852126E+00 -5.16487506E-05 -2.15381943E+00  4.34075902E+00 -1.94721924E-02
 -1.37466921E+00  1.76416406E+00 -6.82433792E-03  1.37466456E+00  1.76416898E+00
  6.32742309E-03  3.20407410E+00 -1.44073636E-01  1.78939854E-02  2.63650928E+00
 -2.11394761E+00  7.64769143E-02 -3.20407585E+00 -1.44089932E-01 -1.84514334E-02
 -5.77279679E+00  5.09388618E-01 -3.59758472E-02 -7.76495953E+00 -1.42943833E+00
 -3.62248219E-02 -7.21803130E+00 -3.94791029E+00  5.65136000E-01 -9.61535379E+00
 -5.37613460E+00  6.93881507E-01 -1.15188745E+01 -3.40778646E+00 -4.29942893E-01
 -1.01149367E+01 -9.66650418E-01 -6.07982597E-01 -1.32072566E+01 -3.17166653E+00
  7.39907198E-01 -1.21413526E+01 -3.96157307E+00 -2.32665815E+00 -1.00864564E+01
 -5.88218643E+00  2.65204847E+00 -9.52143904E+00 -7.11477878E+00 -4.21428874E-01
 -5.75365118E+00 -4.40142554E+00  1.69744302E+00 -6.49547745E+00  3.08709604E+00
 -7.30553954E-02 -4.71099471E+00  5.01730855E+00 -6.16885020E-02 -5.29517716E+00
  6.98265429E+00 -8.54144016E-02 -8.49770132E+00  3.51210875E+00 -1.15103850E-01
 -2.63651903E+00 -2.11395166E+00 -7.75739421E-02 -3.44136402E-05  7.75915996E+00
  1.32453949E-03  5.29515331E+00  6.98267324E+00  8.55342431E-02  1.01148232E+01
 -9.66683012E-01  6.08427589E-01  1.15188601E+01 -3.40774400E+00  4.30297554E-01
  1.32072270E+01 -3.17146580E+00 -7.39554785E-01  1.21413932E+01 -3.96159986E+00
  2.32696661E+00  5.75418230E+00 -4.40112035E+00 -1.69845965E+00  9.52128155E+00
 -7.11464173E+00  4.21889389E-01  1.00868172E+01 -5.88247578E+00 -2.65164935E+00
Number of symbols in /Mol/                 I                0
Int Atom Types                             I   N=          40
           0           0           0           0           0           0
           0           0           0           0           0           0
           0           0           0           0           0           0
           0           0           0           0           0           0
           0           0           0           0           0           0
           0           0           0           0           0           0
           0           0           0           0
Force Field                                I                0
Atom Types                                 C   N=          40
                                                            
                                                            
                                                            
                                                            
                                                            
                                                            
                                                            
                                                            
MM charges                                 R   N=          40
  0.00000000E+00  0.00000000E+00  0.00000000E+00  0.00000000E+00  0.00000000E+00
  0.00000000E+00  0.00000000E+00  0.00000000E+00  0.00000000E+00  0.00000000E+00
  0.00000000E+00  0.00000000E+00  0.00000000E+00  0.00000000E+00  0.00000000E+00
  0.00000000E+00  0.00000000E+00  0.00000000E+00  0.00000000E+00  0.00000000E+00
  0.00000000E+00  0.00000000E+00  0.00000000E+00  0.00000000E+00  0.00000000E+00
  0.00000000E+00  0.00000000E+00  0.00000000E+00  0.00000000E+00  0.00000000E+00
  0.00000000E+00  0.00000000E+00  0.00000000E+00  0.00000000E+00  0.00000000E+00
  0.00000000E+00  0.00000000E+00  0.00000000E+00  0.00000000E+00  0.00000000E+00
Integer atomic weights                     I   N=          40
          12          14          12          12          12           1
          12          12          14          12          12          12
          12           1          12          12          12          14
          12          12          14           1           1           1
           1           1          12          12           1           1
           1           1           1          14          12           1
           1           1           1           1
Real atomic weights                        R   N=          40
  1.20000000E+01  1.40030740E+01  1.20000000E+01  1.20000000E+01  1.20000000E+01
  1.00782504E+00  1.20000000E+01  1.20000000E+01  1.40030740E+01  1.20000000E+01
  1.20000000E+01  1.20000000E+01  1.20000000E+01  1.00782504E+00  1.20000000E+01
  1.20000000E+01  1.20000000E+01  1.40030740E+01  1.20000000E+01  1.20000000E+01
  1.40030740E+01  1.00782504E+00  1.00782504E+00  1.00782504E+00  1.00782504E+00
  1.00782504E+00  1.20000000E+01  1.20000000E+01  1.00782504E+00  1.00782504E+00
  1.00782504E+00  1.00782504E+00  1.00782504E+00  1.40030740E+01  1.20000000E+01
  1.00782504E+00  1.00782504E+00  1.00782504E+00  1.00782504E+00  1.00782504E+00
Atom fragment info                         I   N=          40
           0           0           0           0           0           0
           0           0           0           0           0           0
           0           0           0           0           0           0
           0           0           0           0           0           0
           0           0           0           0           0           0
           0           0           0           0           0           0
           0           0           0           0
Atom residue num                           I   N=          40
           0           0           0           0           0           0
           0           0           0           0           0           0
           0           0           0           0           0           0
           0           0           0           0           0           0
           0           0           0           0           0           0
           0           0           0           0           0           0
           0           0           0           0
Nuclear spins                              I   N=          40
           0           2           0           0           0           1
           0           0           2           0           0           0
           0           1           0           0           0           2
           0           0           2           1           1           1
           1           1           0           0           1           1
           1           1           1           2           0           1
           1           1           1           1
Nuclear ZEff                               R   N=          40
 -3.60000000E+00 -4.55000000E+00 -3.60000000E+00 -3.60000000E+00 -3.60000000E+00
 -1.00000000E+00 -3.60000000E+00 -3.60000000E+00 -4.55000000E+00 -3.60000000E+00
 -3.60000000E+00 -3.60000000E+00 -3.60000000E+00 -1.00000000E+00 -3.60000000E+00
 -3.60000000E+00 -3.60000000E+00 -4.55000000E+00 -3.60000000E+00 -3.60000000E+00
 -4.55000000E+00 -1.00000000E+00 -1.00000000E+00 -1.00000000E+00 -1.00000000E+00
 -1.00000000E+00 -3.60000000E+00 -3.60000000E+00 -1.00000000E+00 -1.00000000E+00
 -1.00000000E+00 -1.00000000E+00 -1.00000000E+00 -4.55000000E+00 -3.60000000E+00
 -1.00000000E+00 -1.00000000E+00 -1.00000000E+00 -1.00000000E+00 -1.00000000E+00
Nuclear ZNuc                               R   N=          40
  6.00000000E+00  7.00000000E+00  6.00000000E+00  6.00000000E+00  6.00000000E+00
  1.00000000E+00  6.00000000E+00  6.00000000E+00  7.00000000E+00  6.00000000E+00
  6.00000000E+00  6.00000000E+00  6.00000000E+00  1.00000000E+00  6.00000000E+00
  6.00000000E+00  6.00000000E+00  7.00000000E+00  6.00000000E+00  6.00000000E+00
  7.00000000E+00  1.00000000E+00  1.00000000E+00  1.00000000E+00  1.00000000E+00
  1.00000000E+00  6.00000000E+00  6.00000000E+00  1.00000000E+00  1.00000000E+00
  1.00000000E+00  1.00000000E+00  1.00000000E+00  7.00000000E+00  6.00000000E+00
  1.00000000E+00  1.00000000E+00  1.00000000E+00  1.00000000E+00  1.00000000E+00
Nuclear QMom                               R   N=          40
  0.00000000E+00  2.04400000E+00  0.00000000E+00  0.00000000E+00  0.00000000E+00
  0.00000000E+00  0.00000000E+00  0.00000000E+00  2.04400000E+00  0.00000000E+00
  0.00000000E+00  0.00000000E+00  0.00000000E+00  0.00000000E+00  0.00000000E+00
  0.00000000E+00  0.00000000E+00  2.04400000E+00  0.00000000E+00  0.00000000E+00
  2.04400000E+00  0.00000000E+00  0.00000000E+00  0.00000000E+00  0.00000000E+00
  0.00000000E+00  0.00000000E+00  0.00000000E+00  0.00000000E+00  0.00000000E+00
  0.00000000E+00  0.00000000E+00  0.00000000E+00  2.04400000E+00  0.00000000E+00
  0.00000000E+00  0.00000000E+00  0.00000000E+00  0.00000000E+00  0.00000000E+00
Nuclear GFac                               R   N=          40
  0.00000000E+00  4.03761000E-01  0.00000000E+00  0.00000000E+00  0.00000000E+00
  2.79284600E+00  0.00000000E+00  0.00000000E+00  4.03761000E-01  0.00000000E+00
  0.00000000E+00  0.00000000E+00  0.00000000E+00  2.79284600E+00  0.00000000E+00
  0.00000000E+00  0.00000000E+00  4.03761000E-01  0.00000000E+00  0.00000000E+00
  4.03761000E-01  2.79284600E+00  2.79284600E+00  2.79284600E+00  2.79284600E+00
  2.79284600E+00  0.00000000E+00  0.00000000E+00  2.79284600E+00  2.79284600E+00
  2.79284600E+00  2.79284600E+00  2.79284600E+00  4.03761000E-01  0.00000000E+00
  2.79284600E+00  2.79284600E+00  2.79284600E+00  2.79284600E+00  2.79284600E+00
MicOpt                                     I   N=          40
          -1          -1          -1          -1          -1          -1
          -1          -1          -1          -1          -1          -1
          -1          -1          -1          -1          -1          -1
          -1          -1          -1          -1          -1          -1
          -1          -1          -1          -1          -1          -1
          -1          -1          -1          -1          -1          -1
          -1          -1          -1          -1
Number of residues                         I                0
Number of secondary structures             I                0
Redundant internal dimensions              I   N=           4
         237          44          77         116
Redundant internal coordinate indices      I   N=         948
           1           2           0           0           1          35
           0           0           1          39           0           0
           1          40           0           0           2           3
           0           0           2          38           0           0
           3           4           0           0           3          34
           0           0           4           5           0           0
           4          13           0           0           5           6
           0           0           5           7           0           0
           7           8           0           0           7          33
           0           0           8           9           0           0
           8          12           0           0           9          10
           0           0           9          32           0           0
          10          11           0           0          10          28
           0           0          11          12           0           0
          11          15           0           0          12          13
           0           0          13          14           0           0
          15          16           0           0          15          31
           0           0          16          17           0           0
          16          27           0           0          17          18
           0           0          17          21           0           0
          18          19           0           0          18          26
           0           0          19          20           0           0
          19          24           0           0          19          25
           0           0          20          21           0           0
          20          22           0           0          20          23
           0           0          27          28           0           0
          27          30           0           0          28          29
           0           0          34          35           0           0
          35          36           0           0          35          37
           0           0           2           1          35           0
           2           1          39           0           2           1
          40           0          35           1          39           0
          35           1          40           0          39           1
          40           0           1           2           3           0
           1           2          38           0           3           2
          38           0           2           3           4           0
           2           3          34           0           4           3
          34           0           3           4           5           0
           3           4          13           0           5           4
          13           0           4           5           6           0
           4           5           7           0           6           5
           7           0           5           7           8           0
           5           7          33           0           8           7
          33           0           7           8           9           0
           7           8          12           0           9           8
          12           0           8           9          10           0
           8           9          32           0          10           9
          32           0           9          10          11           0
           9          10          28           0          11          10
          28           0          10          11          12           0
          10          11          15           0          12          11
          15           0           8          12          11           0
           8          12          13           0          11          12
          13           0           4          13          12           0
           4          13          14           0          12          13
          14           0          11          15          16           0
          11          15          31           0          16          15
          31           0          15          16          17           0
          15          16          27           0          17          16
          27           0          16          17          18           0
          16          17          21           0          18          17
          21           0          17          18          19           0
          17          18          26           0          19          18
          26           0          18          19          20           0
          18          19          24           0          18          19
          25           0          20          19          24           0
          20          19          25           0          24          19
          25           0          19          20          21           0
          19          20          22           0          19          20
          23           0          21          20          22           0
          21          20          23           0          22          20
          23           0          17          21          20           0
          16          27          28           0          16          27
          30           0          28          27          30           0
          10          28          27           0          10          28
          29           0          27          28          29           0
           3          34          35           0           1          35
          34           0           1          35          36           0
           1          35          37           0          34          35
          36           0          34          35          37           0
          36          35          37           0          35           1
           2           3          35           1           2          38
          39           1           2           3          39           1
           2          38          40           1           2           3
          40           1           2          38           2           1
          35          34           2           1          35          36
           2           1          35          37          39           1
          35          34          39           1          35          36
          39           1          35          37          40           1
          35          34          40           1          35          36
          40           1          35          37           1           2
           3           4           1           2           3          34
          38           2           3           4          38           2
           3          34           2           3           4           5
           2           3           4          13          34           3
           4           5          34           3           4          13
           2           3          34          35           4           3
          34          35           3           4           5           6
           3           4           5           7          13           4
           5           6          13           4           5           7
           3           4          13          12           3           4
          13          14           5           4          13          12
           5           4          13          14           4           5
           7           8           4           5           7          33
           6           5           7           8           6           5
           7          33           5           7           8           9
           5           7           8          12          33           7
           8           9          33           7           8          12
           7           8           9          10           7           8
           9          32          12           8           9          10
          12           8           9          32           7           8
          12          11           7           8          12          13
           9           8          12          11           9           8
          12          13           8           9          10          11
           8           9          10          28          32           9
          10          11          32           9          10          28
           9          10          11          12           9          10
          11          15          28          10          11          12
          28          10          11          15           9          10
          28          27           9          10          28          29
          11          10          28          27          11          10
          28          29          10          11          12           8
          10          11          12          13          15          11
          12           8          15          11          12          13
          10          11          15          16          10          11
          15          31          12          11          15          16
          12          11          15          31           8          12
          13           4           8          12          13          14
          11          12          13           4          11          12
          13          14          11          15          16          17
          11          15          16          27          31          15
          16          17          31          15          16          27
          15          16          17          18          15          16
          17          21          27          16          17          18
          27          16          17          21          15          16
          27          28          15          16          27          30
          17          16          27          28          17          16
          27          30          16          17          18          19
          16          17          18          26          21          17
          18          19          21          17          18          26
          16          17          21          20          18          17
          21          20          17          18          19          20
          17          18          19          24          17          18
          19          25          26          18          19          20
          26          18          19          24          26          18
          19          25          18          19          20          21
          18          19          20          22          18          19
          20          23          24          19          20          21
          24          19          20          22          24          19
          20          23          25          19          20          21
          25          19          20          22          25          19
          20          23          19          20          21          17
          22          20          21          17          23          20
          21          17          16          27          28          10
          16          27          28          29          30          27
          28          10          30          27          28          29
           3          34          35           1           3          34
          35          36           3          34          35          37
Redundant internal coordinates             R   N=         237
  2.79350184E+00  2.95987571E+00  2.06775986E+00  2.07663408E+00  2.64642935E+00
  1.90584488E+00  2.77988646E+00  2.46240342E+00  2.67735093E+00  2.65059785E+00
  2.04726665E+00  2.62873516E+00  2.64549201E+00  2.05046730E+00  2.63492605E+00
  2.69186358E+00  2.63492992E+00  1.90063920E+00  2.69185375E+00  2.64549559E+00
  2.74936522E+00  2.64353875E+00  2.64353229E+00  2.05084501E+00  2.65059778E+00
  2.05084652E+00  2.77988532E+00  2.67735276E+00  2.64640631E+00  2.46241184E+00
  2.79348442E+00  1.90583430E+00  2.95985925E+00  2.07664247E+00  2.06775743E+00
  2.82168120E+00  2.06759183E+00  2.07163880E+00  2.62873129E+00  2.04726752E+00
  2.05046724E+00  2.82167123E+00  2.06759880E+00  2.07163156E+00  1.76647350E+00
  1.94554600E+00  1.94200437E+00  1.96444197E+00  1.95433626E+00  1.89020494E+00
  1.89616641E+00  2.10633207E+00  2.11788912E+00  2.11250479E+00  2.01402426E+00
  2.15658012E+00  2.06923736E+00  2.12063101E+00  2.09328834E+00  2.05346691E+00
  2.12193068E+00  2.10778535E+00  2.05834722E+00  2.10637254E+00  2.11846555E+00
  2.26911326E+00  2.12309147E+00  1.89095856E+00  1.91390654E+00  2.18463955E+00
  2.18463883E+00  1.89096016E+00  2.26910762E+00  2.12309505E+00  1.86446409E+00
  2.08359849E+00  2.33511294E+00  1.86446099E+00  2.08360091E+00  2.33511308E+00
  2.08600452E+00  2.09996188E+00  2.09666043E+00  2.08600376E+00  2.09666395E+00
  2.09995599E+00  2.12063494E+00  2.09328879E+00  2.06923311E+00  2.11251105E+00
  2.15658257E+00  2.01401585E+00  1.89617456E+00  2.11795444E+00  2.10639432E+00
  1.76644965E+00  1.94199652E+00  1.94556521E+00  1.95431662E+00  1.96446589E+00
  1.89021169E+00  1.85386312E+00  1.96738819E+00  1.94238708E+00  1.92111885E+00
  1.89969410E+00  1.87883403E+00  1.87296371E+00  2.12192943E+00  2.05346291E+00
  2.10779056E+00  2.05834656E+00  2.11846139E+00  2.10637733E+00  1.87298379E+00
  1.85386679E+00  1.96738749E+00  1.94239210E+00  1.92109763E+00  1.89971518E+00
  1.87882690E+00  1.81214997E-01  2.74666634E+00  2.27347008E+00 -1.44426389E+00
 -1.89768707E+00  6.67764270E-01 -1.80667910E-01 -2.28582997E+00  1.88441858E+00
 -2.25941489E+00  1.91860836E+00 -1.94328400E-01  1.88936422E+00 -2.15797841E-01
 -2.32873460E+00  3.02949520E+00 -1.24901205E-01  4.68580437E-01 -2.68581597E+00
 -2.88893999E+00  2.60788637E-01  2.66533495E-01 -2.86692318E+00 -2.88929237E-03
  3.12553773E+00 -8.23379612E-03  3.13568433E+00  3.12535402E+00 -1.39131645E-02
 -3.13641563E+00  4.10374139E-02  1.34233271E-02 -3.09230894E+00  3.20320652E-03
 -3.13853547E+00 -3.13599224E+00  5.45439340E-03  3.14136942E+00  7.78220279E-03
 -7.61472432E-05 -3.13366336E+00 -3.13203443E+00  8.65776691E-03  2.37816602E-03
 -3.14011494E+00  3.12927060E+00 -8.09353661E-03 -5.86224829E-03  3.13995892E+00
  2.18579387E-03 -3.13215233E+00 -3.13850641E+00  1.03407724E-02 -5.74649727E-03
  3.13996271E+00  3.12931931E+00 -8.15678952E-03  3.14138758E+00  4.83941473E-05
  7.88341279E-03 -3.13345578E+00  7.09116362E-03 -3.13960586E+00 -3.13947071E+00
 -2.98242705E-03 -2.76129866E-03  3.10293959E+00 -3.13889534E+00 -3.31944470E-02
 -2.74093038E-03  3.10306027E+00 -3.13872651E+00 -3.29253058E-02 -3.13633461E+00
  1.34857148E-02  4.12187359E-02 -3.09214624E+00  2.60775572E-01 -2.86696425E+00
 -2.88893466E+00  2.66510822E-01 -1.39361708E-02  3.12531368E+00  3.13564320E+00
 -8.29225042E-03  3.02938214E+00  4.68232687E-01 -1.24988357E-01 -2.68613781E+00
  3.12549756E+00 -2.95613022E-03  1.81401436E-01 -1.89746108E+00  2.27367962E+00
  2.74708700E+00  6.68224483E-01 -1.44382012E+00 -1.80886634E-01 -2.28607284E+00
  1.88416961E+00  1.88911403E+00 -2.16072176E-01 -2.32901503E+00 -2.25965319E+00
  1.91834591E+00 -1.94596941E-01  1.20893857E-01  2.25570761E+00 -1.97216097E+00
  3.14521942E-03 -3.13869906E+00 -3.13603235E+00  5.30867164E-03  1.20710869E-01
  2.25551382E+00 -1.97236317E+00
ZRed-IntVec                                I   N=         237
           0           0           0           0           0           0
           0           0           0           0           0           0
           0           0           0           0           0           0
           0           0           0           0           0           0
           0           0           0           0           0           0
           0           0           0           0           0           0
           0           0           0           0           0           0
           0           0           0           0           0           0
           0           0           0           0           0           0
           0           0           0           0           0           0
           0           0           0           0           0           0
           0           0           0           0           0           0
           0           0           0           0           0           0
           0           0           0           0           0           0
           0           0           0           0           0           0
           0           0           0           0           0           0
           0           0           0           0           0           0
           0           0           0           0           0           0
           0           0           0           0           0           0
           0           0           0           0           0           0
           0           0           0           0           0           0