Geometry Optimization                                                   
FOpt      RB3LYP                                                      6-31G               
Number of atoms                            I               40
Info1-9                                    I   N=           9
          49          49           0           0           0         110
           2          18        -502
Full Title                                 C   N=           2
Geometry Optimization   
Route                                      C   N=           4
#p B3LYP/6-31G SCRF=(PCM,Solvent=Water) Opt     
Charge                                     I                0
Multiplicity                               I                1
Number of electrons                        I              160
Number of alpha electrons                  I               80
Number of beta electrons                   I               80
Number of basis functions                  I              241
Number of independent functions            I              241
Number of point charges in /Mol/           I                0
Number of translation vectors              I                0
Atomic numbers                             I   N=          40
           6           7           6           6           6           1
           6           6           7           6           6           6
           6           1           6           6           6           7
           6           6           7           1           1           1
           1           1           6           6           1           1
           1           1           1           7           6           1
           1           1           1           1
Nuclear charges                            R   N=          40
  6.00000000E+00  7.00000000E+00  6.00000000E+00  6.00000000E+00  6.00000000E+00
  1.00000000E+00  6.00000000E+00  6.00000000E+00  7.00000000E+00  6.00000000E+00
  6.00000000E+00  6.00000000E+00  6.00000000E+00  1.00000000E+00  6.00000000E+00
  6.00000000E+00  6.00000000E+00  7.00000000E+00  6.00000000E+00  6.00000000E+00
  7.00000000E+00  1.00000000E+00  1.00000000E+00  1.00000000E+00  1.00000000E+00
  1.00000000E+00  6.00000000E+00  6.00000000E+00  1.00000000E+00  1.00000000E+00
  1.00000000E+00  1.00000000E+00  1.00000000E+00  7.00000000E+00  6.00000000E+00
  1.00000000E+00  1.00000000E+00  1.00000000E+00  1.00000000E+00  1.00000000E+00
Current cartesian coordinates              R   N=         120
  9.59482106E+00 -5.38534175E+00 -6.95015641E-01  7.20346336E+00 -3.93901766E+00
 -5.61537206E-01  7.75680948E+00 -1.43557844E+00  3.40296716E-02  5.77108890E+00
  5.15909624E-01  2.06500675E-02  6.48981740E+00  3.09773010E+00  3.68656557E-02
  8.48851347E+00  3.54032651E+00  4.96512737E-02  4.70914092E+00  5.03281900E+00
  2.90291151E-02  2.14932942E+00  4.35682616E+00  8.51371778E-03  3.39919658E-05
  5.87329074E+00 -2.76828948E-04 -2.14926134E+00  4.35681242E+00 -8.07569331E-03
 -1.37429572E+00  1.77548913E+00 -1.09454772E-03  1.37437312E+00  1.77549713E+00
  2.98959516E-03  3.20002758E+00 -1.37141378E-01  1.40787812E-02  2.62458499E+00
 -2.10395996E+00  6.74090131E-02 -3.19993434E+00 -1.37156863E-01 -1.24661261E-02
 -5.77100454E+00  5.15865951E-01 -2.04253760E-02 -7.75678700E+00 -1.43557231E+00
 -3.40813478E-02 -7.20367306E+00 -3.93907438E+00  5.61426241E-01 -9.59510907E+00
 -5.38526016E+00  6.94558791E-01 -1.15042222E+01 -3.44630175E+00 -4.52656172E-01
 -1.01131691E+01 -9.85538179E-01 -6.32761460E-01 -1.32019901E+01 -3.22382374E+00
  7.05979469E-01 -1.21118787E+01 -4.01931352E+00 -2.34900003E+00 -1.00596266E+01
 -5.87173560E+00  2.65590520E+00 -9.48298787E+00 -7.13347767E+00 -4.00799883E-01
 -5.73241872E+00 -4.40325156E+00  1.68256187E+00 -6.48972127E+00  3.09768367E+00
 -3.77722890E-02 -4.70906180E+00  5.03278733E+00 -2.98421469E-02 -5.29192677E+00
  6.99721039E+00 -3.61061160E-02 -8.48841156E+00  3.54026024E+00 -5.16356122E-02
 -2.62437871E+00 -2.10397440E+00 -6.45086746E-02  2.13258411E-05  7.77751553E+00
  2.54521336E-04  5.29199777E+00  6.99724687E+00  3.45666551E-02  1.01132829E+01
 -9.85694387E-01  6.32454123E-01  1.15041835E+01 -3.44652591E+00  4.52038076E-01
  1.32017997E+01 -3.22407337E+00 -7.06826727E-01  1.21120840E+01 -4.01966548E+00
  2.34826378E+00  5.73210224E+00 -4.40294603E+00 -1.68264771E+00  9.48272473E+00
 -7.13358950E+00  4.00292618E-01  1.00590594E+01 -5.87176330E+00 -2.65643851E+00
Number of symbols in /Mol/                 I                0
Int Atom Types                             I   N=          40
           0           0           0           0           0           0
           0           0           0           0           0           0
           0           0           0           0           0           0
           0           0           0           0           0           0
           0           0           0           0           0           0
           0           0           0           0           0           0
           0           0           0           0
Force Field                                I                0
Atom Types                                 C   N=          40
                                                            
                                                            
                                                            
                                                            
                                                            
                                                            
                                                            
                                                            
MM charges                                 R   N=          40
  0.00000000E+00  0.00000000E+00  0.00000000E+00  0.00000000E+00  0.00000000E+00
  0.00000000E+00  0.00000000E+00  0.00000000E+00  0.00000000E+00  0.00000000E+00
  0.00000000E+00  0.00000000E+00  0.00000000E+00  0.00000000E+00  0.00000000E+00
  0.00000000E+00  0.00000000E+00  0.00000000E+00  0.00000000E+00  0.00000000E+00
  0.00000000E+00  0.00000000E+00  0.00000000E+00  0.00000000E+00  0.00000000E+00
  0.00000000E+00  0.00000000E+00  0.00000000E+00  0.00000000E+00  0.00000000E+00
  0.00000000E+00  0.00000000E+00  0.00000000E+00  0.00000000E+00  0.00000000E+00
  0.00000000E+00  0.00000000E+00  0.00000000E+00  0.00000000E+00  0.00000000E+00
Integer atomic weights                     I   N=          40
          12          14          12          12          12           1
          12          12          14          12          12          12
          12           1          12          12          12          14
          12          12          14           1           1           1
           1           1          12          12           1           1
           1           1           1          14          12           1
           1           1           1           1
Real atomic weights                        R   N=          40
  1.20000000E+01  1.40030740E+01  1.20000000E+01  1.20000000E+01  1.20000000E+01
  1.00782504E+00  1.20000000E+01  1.20000000E+01  1.40030740E+01  1.20000000E+01
  1.20000000E+01  1.20000000E+01  1.20000000E+01  1.00782504E+00  1.20000000E+01
  1.20000000E+01  1.20000000E+01  1.40030740E+01  1.20000000E+01  1.20000000E+01
  1.40030740E+01  1.00782504E+00  1.00782504E+00  1.00782504E+00  1.00782504E+00
  1.00782504E+00  1.20000000E+01  1.20000000E+01  1.00782504E+00  1.00782504E+00
  1.00782504E+00  1.00782504E+00  1.00782504E+00  1.40030740E+01  1.20000000E+01
  1.00782504E+00  1.00782504E+00  1.00782504E+00  1.00782504E+00  1.00782504E+00
Atom fragment info                         I   N=          40
           0           0           0           0           0           0
           0           0           0           0           0           0
           0           0           0           0           0           0
           0           0           0           0           0           0
           0           0           0           0           0           0
           0           0           0           0           0           0
           0           0           0           0
Atom residue num                           I   N=          40
           0           0           0           0           0           0
           0           0           0           0           0           0
           0           0           0           0           0           0
           0           0           0           0           0           0
           0           0           0           0           0           0
           0           0           0           0           0           0
           0           0           0           0
Nuclear spins                              I   N=          40
           0           2           0           0           0           1
           0           0           2           0           0           0
           0           1           0           0           0           2
           0           0           2           1           1           1
           1           1           0           0           1           1
           1           1           1           2           0           1
           1           1           1           1
Nuclear ZEff                               R   N=          40
 -3.60000000E+00 -4.55000000E+00 -3.60000000E+00 -3.60000000E+00 -3.60000000E+00
 -1.00000000E+00 -3.60000000E+00 -3.60000000E+00 -4.55000000E+00 -3.60000000E+00
 -3.60000000E+00 -3.60000000E+00 -3.60000000E+00 -1.00000000E+00 -3.60000000E+00
 -3.60000000E+00 -3.60000000E+00 -4.55000000E+00 -3.60000000E+00 -3.60000000E+00
 -4.55000000E+00 -1.00000000E+00 -1.00000000E+00 -1.00000000E+00 -1.00000000E+00
 -1.00000000E+00 -3.60000000E+00 -3.60000000E+00 -1.00000000E+00 -1.00000000E+00
 -1.00000000E+00 -1.00000000E+00 -1.00000000E+00 -4.55000000E+00 -3.60000000E+00
 -1.00000000E+00 -1.00000000E+00 -1.00000000E+00 -1.00000000E+00 -1.00000000E+00
Nuclear ZNuc                               R   N=          40
  6.00000000E+00  7.00000000E+00  6.00000000E+00  6.00000000E+00  6.00000000E+00
  1.00000000E+00  6.00000000E+00  6.00000000E+00  7.00000000E+00  6.00000000E+00
  6.00000000E+00  6.00000000E+00  6.00000000E+00  1.00000000E+00  6.00000000E+00
  6.00000000E+00  6.00000000E+00  7.00000000E+00  6.00000000E+00  6.00000000E+00
  7.00000000E+00  1.00000000E+00  1.00000000E+00  1.00000000E+00  1.00000000E+00
  1.00000000E+00  6.00000000E+00  6.00000000E+00  1.00000000E+00  1.00000000E+00
  1.00000000E+00  1.00000000E+00  1.00000000E+00  7.00000000E+00  6.00000000E+00
  1.00000000E+00  1.00000000E+00  1.00000000E+00  1.00000000E+00  1.00000000E+00
Nuclear QMom                               R   N=          40
  0.00000000E+00  2.04400000E+00  0.00000000E+00  0.00000000E+00  0.00000000E+00
  0.00000000E+00  0.00000000E+00  0.00000000E+00  2.04400000E+00  0.00000000E+00
  0.00000000E+00  0.00000000E+00  0.00000000E+00  0.00000000E+00  0.00000000E+00
  0.00000000E+00  0.00000000E+00  2.04400000E+00  0.00000000E+00  0.00000000E+00
  2.04400000E+00  0.00000000E+00  0.00000000E+00  0.00000000E+00  0.00000000E+00
  0.00000000E+00  0.00000000E+00  0.00000000E+00  0.00000000E+00  0.00000000E+00
  0.00000000E+00  0.00000000E+00  0.00000000E+00  2.04400000E+00  0.00000000E+00
  0.00000000E+00  0.00000000E+00  0.00000000E+00  0.00000000E+00  0.00000000E+00
Nuclear GFac                               R   N=          40
  0.00000000E+00  4.03761000E-01  0.00000000E+00  0.00000000E+00  0.00000000E+00
  2.79284600E+00  0.00000000E+00  0.00000000E+00  4.03761000E-01  0.00000000E+00
  0.00000000E+00  0.00000000E+00  0.00000000E+00  2.79284600E+00  0.00000000E+00
  0.00000000E+00  0.00000000E+00  4.03761000E-01  0.00000000E+00  0.00000000E+00
  4.03761000E-01  2.79284600E+00  2.79284600E+00  2.79284600E+00  2.79284600E+00
  2.79284600E+00  0.00000000E+00  0.00000000E+00  2.79284600E+00  2.79284600E+00
  2.79284600E+00  2.79284600E+00  2.79284600E+00  4.03761000E-01  0.00000000E+00
  2.79284600E+00  2.79284600E+00  2.79284600E+00  2.79284600E+00  2.79284600E+00
MicOpt                                     I   N=          40
          -1          -1          -1          -1          -1          -1
          -1          -1          -1          -1          -1          -1
          -1          -1          -1          -1          -1          -1
          -1          -1          -1          -1          -1          -1
          -1          -1          -1          -1          -1          -1
          -1          -1          -1          -1          -1          -1
          -1          -1          -1          -1
Number of residues                         I                0
Number of secondary structures             I                0
Redundant internal dimensions              I   N=           4
         237          44          77         116
Redundant internal coordinate indices      I   N=         948
           1           2           0           0           1          35
           0           0           1          39           0           0
           1          40           0           0           2           3
           0           0           2          38           0           0
           3           4           0           0           3          34
           0           0           4           5           0           0
           4          13           0           0           5           6
           0           0           5           7           0           0
           7           8           0           0           7          33
           0           0           8           9           0           0
           8          12           0           0           9          10
           0           0           9          32           0           0
          10          11           0           0          10          28
           0           0          11          12           0           0
          11          15           0           0          12          13
           0           0          13          14           0           0
          15          16           0           0          15          31
           0           0          16          17           0           0
          16          27           0           0          17          18
           0           0          17          21           0           0
          18          19           0           0          18          26
           0           0          19          20           0           0
          19          24           0           0          19          25
           0           0          20          21           0           0
          20          22           0           0          20          23
           0           0          27          28           0           0
          27          30           0           0          28          29
           0           0          34          35           0           0
          35          36           0           0          35          37
           0           0           2           1          35           0
           2           1          39           0           2           1
          40           0          35           1          39           0
          35           1          40           0          39           1
          40           0           1           2           3           0
           1           2          38           0           3           2
          38           0           2           3           4           0
           2           3          34           0           4           3
          34           0           3           4           5           0
           3           4          13           0           5           4
          13           0           4           5           6           0
           4           5           7           0           6           5
           7           0           5           7           8           0
           5           7          33           0           8           7
          33           0           7           8           9           0
           7           8          12           0           9           8
          12           0           8           9          10           0
           8           9          32           0          10           9
          32           0           9          10          11           0
           9          10          28           0          11          10
          28           0          10          11          12           0
          10          11          15           0          12          11
          15           0           8          12          11           0
           8          12          13           0          11          12
          13           0           4          13          12           0
           4          13          14           0          12          13
          14           0          11          15          16           0
          11          15          31           0          16          15
          31           0          15          16          17           0
          15          16          27           0          17          16
          27           0          16          17          18           0
          16          17          21           0          18          17
          21           0          17          18          19           0
          17          18          26           0          19          18
          26           0          18          19          20           0
          18          19          24           0          18          19
          25           0          20          19          24           0
          20          19          25           0          24          19
          25           0          19          20          21           0
          19          20          22           0          19          20
          23           0          21          20          22           0
          21          20          23           0          22          20
          23           0          17          21          20           0
          16          27          28           0          16          27
          30           0          28          27          30           0
          10          28          27           0          10          28
          29           0          27          28          29           0
           3          34          35           0           1          35
          34           0           1          35          36           0
           1          35          37           0          34          35
          36           0          34          35          37           0
          36          35          37           0          35           1
           2           3          35           1           2          38
          39           1           2           3          39           1
           2          38          40           1           2           3
          40           1           2          38           2           1
          35          34           2           1          35          36
           2           1          35          37          39           1
          35          34          39           1          35          36
          39           1          35          37          40           1
          35          34          40           1          35          36
          40           1          35          37           1           2
           3           4           1           2           3          34
          38           2           3           4          38           2
           3          34           2           3           4           5
           2           3           4          13          34           3
           4           5          34           3           4          13
           2           3          34          35           4           3
          34          35           3           4           5           6
           3           4           5           7          13           4
           5           6          13           4           5           7
           3           4          13          12           3           4
          13          14           5           4          13          12
           5           4          13          14           4           5
           7           8           4           5           7          33
           6           5           7           8           6           5
           7          33           5           7           8           9
           5           7           8          12          33           7
           8           9          33           7           8          12
           7           8           9          10           7           8
           9          32          12           8           9          10
          12           8           9          32           7           8
          12          11           7           8          12          13
           9           8          12          11           9           8
          12          13           8           9          10          11
           8           9          10          28          32           9
          10          11          32           9          10          28
           9          10          11          12           9          10
          11          15          28          10          11          12
          28          10          11          15           9          10
          28          27           9          10          28          29
          11          10          28          27          11          10
          28          29          10          11          12           8
          10          11          12          13          15          11
          12           8          15          11          12          13
          10          11          15          16          10          11
          15          31          12          11          15          16
          12          11          15          31           8          12
          13           4           8          12          13          14
          11          12          13           4          11          12
          13          14          11          15          16          17
          11          15          16          27          31          15
          16          17          31          15          16          27
          15          16          17          18          15          16
          17          21          27          16          17          18
          27          16          17          21          15          16
          27          28          15          16          27          30
          17          16          27          28          17          16
          27          30          16          17          18          19
          16          17          18          26          21          17
          18          19          21          17          18          26
          16          17          21          20          18          17
          21          20          17          18          19          20
          17          18          19          24          17          18
          19          25          26          18          19          20
          26          18          19          24          26          18
          19          25          18          19          20          21
          18          19          20          22          18          19
          20          23          24          19          20          21
          24          19          20          22          24          19
          20          23          25          19          20          21
          25          19          20          22          25          19
          20          23          19          20          21          17
          22          20          21          17          23          20
          21          17          16          27          28          10
          16          27          28          29          30          27
          28          10          30          27          28          29
           3          34          35           1           3          34
          35          36           3          34          35          37
Redundant internal coordinates             R   N=         237
  2.79790305E+00  2.95303302E+00  2.06606776E+00  2.07347603E+00  2.63212836E+00
  1.90709776E+00  2.78416431E+00  2.47254414E+00  2.68004302E+00  2.65271090E+00
  2.04715438E+00  2.62972226E+00  2.64764464E+00  2.04908019E+00  2.63043969E+00
  2.69515256E+00  2.63044440E+00  1.90422487E+00  2.69515313E+00  2.64763937E+00
  2.74867187E+00  2.64410673E+00  2.64411105E+00  2.04996430E+00  2.65271636E+00
  2.04996193E+00  2.78417488E+00  2.68004429E+00  2.63212593E+00  2.47254628E+00
  2.79788202E+00  1.90709068E+00  2.95302808E+00  2.07347887E+00  2.06607024E+00
  2.83245902E+00  2.06744982E+00  2.07212668E+00  2.62972189E+00  2.04715145E+00
  2.04907999E+00  2.83246292E+00  2.06745099E+00  2.07212547E+00  1.76675233E+00
  1.94523390E+00  1.93666201E+00  1.96569099E+00  1.95702577E+00  1.89139440E+00
  1.89945258E+00  2.10089481E+00  2.12536830E+00  2.11253792E+00  2.01327184E+00
  2.15719744E+00  2.07594404E+00  2.11615361E+00  2.09104801E+00  2.06025119E+00
  2.12618496E+00  2.09674412E+00  2.05648518E+00  2.10928068E+00  2.11741718E+00
  2.26896131E+00  2.12063533E+00  1.89358174E+00  1.91269501E+00  2.18524803E+00
  2.18524201E+00  1.89358120E+00  2.26895836E+00  2.12063704E+00  1.86245498E+00
  2.08778610E+00  2.33292588E+00  1.86245641E+00  2.08778764E+00  2.33292656E+00
  2.08419521E+00  2.10389151E+00  2.09475269E+00  2.08420187E+00  2.09471507E+00
  2.10392852E+00  2.11619520E+00  2.09103571E+00  2.07591487E+00  2.11257776E+00
  2.15717042E+00  2.01325880E+00  1.89946157E+00  2.12541801E+00  2.10089023E+00
  1.76675299E+00  1.93666917E+00  1.94523979E+00  1.95702327E+00  1.96568687E+00
  1.89138825E+00  1.85213137E+00  1.96474194E+00  1.94286743E+00  1.92350589E+00
  1.90294201E+00  1.87739550E+00  1.86974391E+00  2.12619401E+00  2.06024200E+00
  2.09674446E+00  2.05648198E+00  2.11741815E+00  2.10928274E+00  1.86973873E+00
  1.85213706E+00  1.96473685E+00  1.94286876E+00  1.92350136E+00  1.90294753E+00
  1.87739291E+00  1.93070282E-01  2.76990225E+00  2.28679914E+00 -1.41955420E+00
 -1.88674148E+00  6.90090485E-01 -1.86778419E-01 -2.29221583E+00  1.88141218E+00
 -2.26589487E+00  1.91185302E+00 -1.97704272E-01  1.87837410E+00 -2.27063311E-01
 -2.33662061E+00  3.02299654E+00 -1.38171103E-01  4.55607166E-01 -2.70556048E+00
 -2.88091011E+00  2.70272596E-01  2.81920646E-01 -2.85008195E+00  5.76156330E-03
  3.12721807E+00  4.98425671E-03 -3.14001686E+00  3.13712780E+00 -7.87331715E-03
  3.14089257E+00  2.75558868E-02  8.97186232E-03 -3.10436483E+00  1.78126673E-03
 -3.13755062E+00  3.13989554E+00  5.63645316E-04  3.14017346E+00  3.06556848E-03
 -3.69107046E-03 -3.14079897E+00 -3.13623932E+00  4.61164030E-03  1.32136177E-03
 -3.14101298E+00  3.13469674E+00 -1.84209718E-03 -3.27340625E-03 -3.13981224E+00
  1.23096676E-03 -3.13584041E+00 -3.13962000E+00  6.49392858E-03 -3.21899123E-03
 -3.13916528E+00  3.13431153E+00 -1.63476127E-03  3.13949393E+00 -4.45231757E-03
  2.93029123E-03 -3.14101595E+00  3.95233779E-03  3.13947153E+00  3.13875943E+00
 -8.90669186E-03 -4.40543258E-03  3.10932913E+00 -3.13852204E+00 -2.47874724E-02
 -4.26323096E-03  3.10922388E+00 -3.13916440E+00 -2.56772843E-02  3.14092157E+00
  8.98621713E-03  2.73373293E-02 -3.10459803E+00  2.69762931E-01 -2.85057814E+00
 -2.88140517E+00  2.81439062E-01 -7.81603885E-03  3.13711737E+00 -3.13997428E+00
  4.95913060E-03  3.02300615E+00  4.55531999E-01 -1.38174146E-01 -2.70564830E+00
  3.12719541E+00  5.75106580E-03  1.93084792E-01 -1.88672760E+00  2.28681190E+00
  2.77002099E+00  6.90208597E-01 -1.41943720E+00 -1.86796671E-01 -2.29223888E+00
  1.88138316E+00  1.87836348E+00 -2.27078732E-01 -2.33664200E+00 -2.26591856E+00
  1.91182454E+00 -1.97738729E-01  1.20101405E-01  2.25201606E+00 -1.97427610E+00
  1.78470631E-03 -3.13746587E+00  3.13996806E+00  7.17479144E-04  1.20083817E-01
  2.25199323E+00 -1.97430142E+00
ZRed-IntVec                                I   N=         237
           0           0           0           0           0           0
           0           0           0           0           0           0
           0           0           0           0           0           0
           0           0           0           0           0           0
           0           0           0           0           0           0
           0           0           0           0           0           0
           0           0           0           0           0           0
           0           0           0           0           0           0
           0           0           0           0           0           0
           0           0           0           0           0           0
           0           0           0           0           0           0
           0           0           0           0           0           0
           0           0           0           0           0           0
           0           0           0           0           0           0
           0           0           0           0           0           0
           0           0           0           0           0           0
           0           0           0           0           0           0
           0           0           0           0           0           0
           0           0           0           0           0           0
           0           0           0           0           0           0
           0           0           0           0           0           0