Entering Gaussian System, Link 0=g16
 Initial command:
 /opt/rit/el9/20230413/app/linux-rhel9-x86_64_v3/gcc-11.2.1/gaussian-16-C.01-3yzt2xlc3n3d45c3wnnzh2wvb3eacy2v/g16/l1.exe "/work/ratul1/hannah/bcb_class/BCB546_Spring2025/assignments/Final_Project/ligand_water/Gau-1095054.inp" -scrdir="/work/ratul1/hannah/bcb_class/BCB546_Spring2025/assignments/Final_Project/ligand_water/"
 Entering Link 1 = /opt/rit/el9/20230413/app/linux-rhel9-x86_64_v3/gcc-11.2.1/gaussian-16-C.01-3yzt2xlc3n3d45c3wnnzh2wvb3eacy2v/g16/l1.exe PID=   1095055.
  
 Copyright (c) 1988-2019, Gaussian, Inc.  All Rights Reserved.
  
 This is part of the Gaussian(R) 16 program.  It is based on
 the Gaussian(R) 09 system (copyright 2009, Gaussian, Inc.),
 the Gaussian(R) 03 system (copyright 2003, Gaussian, Inc.),
 the Gaussian(R) 98 system (copyright 1998, Gaussian, Inc.),
 the Gaussian(R) 94 system (copyright 1995, Gaussian, Inc.),
 the Gaussian 92(TM) system (copyright 1992, Gaussian, Inc.),
 the Gaussian 90(TM) system (copyright 1990, Gaussian, Inc.),
 the Gaussian 88(TM) system (copyright 1988, Gaussian, Inc.),
 the Gaussian 86(TM) system (copyright 1986, Carnegie Mellon
 University), and the Gaussian 82(TM) system (copyright 1983,
 Carnegie Mellon University). Gaussian is a federally registered
 trademark of Gaussian, Inc.
  
 This software contains proprietary and confidential information,
 including trade secrets, belonging to Gaussian, Inc.
  
 This software is provided under written license and may be
 used, copied, transmitted, or stored only in accord with that
 written license.
  
 The following legend is applicable only to US Government
 contracts under FAR:
  
                    RESTRICTED RIGHTS LEGEND
  
 Use, reproduction and disclosure by the US Government is
 subject to restrictions as set forth in subparagraphs (a)
 and (c) of the Commercial Computer Software - Restricted
 Rights clause in FAR 52.227-19.
  
 Gaussian, Inc.
 340 Quinnipiac St., Bldg. 40, Wallingford CT 06492
  
  
 ---------------------------------------------------------------
 Warning -- This program may not be used in any manner that
 competes with the business of Gaussian, Inc. or will provide
 assistance to any competitor of Gaussian, Inc.  The licensee
 of this program is prohibited from giving any competitor of
 Gaussian, Inc. access to this program.  By using this program,
 the user acknowledges that Gaussian, Inc. is engaged in the
 business of creating and licensing software in the field of
 computational chemistry and represents and warrants to the
 licensee that it is not a competitor of Gaussian, Inc. and that
 it will not use this program in any manner prohibited above.
 ---------------------------------------------------------------
  

 Cite this work as:
 Gaussian 16, Revision C.01,
 M. J. Frisch, G. W. Trucks, H. B. Schlegel, G. E. Scuseria, 
 M. A. Robb, J. R. Cheeseman, G. Scalmani, V. Barone, 
 G. A. Petersson, H. Nakatsuji, X. Li, M. Caricato, A. V. Marenich, 
 J. Bloino, B. G. Janesko, R. Gomperts, B. Mennucci, H. P. Hratchian, 
 J. V. Ortiz, A. F. Izmaylov, J. L. Sonnenberg, D. Williams-Young, 
 F. Ding, F. Lipparini, F. Egidi, J. Goings, B. Peng, A. Petrone, 
 T. Henderson, D. Ranasinghe, V. G. Zakrzewski, J. Gao, N. Rega, 
 G. Zheng, W. Liang, M. Hada, M. Ehara, K. Toyota, R. Fukuda, 
 J. Hasegawa, M. Ishida, T. Nakajima, Y. Honda, O. Kitao, H. Nakai, 
 T. Vreven, K. Throssell, J. A. Montgomery, Jr., J. E. Peralta, 
 F. Ogliaro, M. J. Bearpark, J. J. Heyd, E. N. Brothers, K. N. Kudin, 
 V. N. Staroverov, T. A. Keith, R. Kobayashi, J. Normand, 
 K. Raghavachari, A. P. Rendell, J. C. Burant, S. S. Iyengar, 
 J. Tomasi, M. Cossi, J. M. Millam, M. Klene, C. Adamo, R. Cammi, 
 J. W. Ochterski, R. L. Martin, K. Morokuma, O. Farkas, 
 J. B. Foresman, and D. J. Fox, Gaussian, Inc., Wallingford CT, 2019.
 
 ******************************************
 Gaussian 16:  ES64L-G16RevC.01  3-Jul-2019
                 2-Apr-2025 
 ******************************************
 %chk=carbazole_compound_water.chk
 %Mem=8000MB
 %NProcShared=4
 Will use up to    4 processors via shared memory.
 -------------------------------------------
 #p B3LYP/6-31G SCRF=(PCM,Solvent=Water) Opt
 -------------------------------------------
 1/18=20,19=15,26=3,38=1/1,3;
 2/9=110,12=2,17=6,18=5,40=1/2;
 3/5=1,6=6,11=2,25=1,30=1,70=2201,71=1,72=1,74=-5/1,2,3;
 4//1;
 5/5=2,38=5,53=1/2;
 6/7=2,8=2,9=2,10=2,28=1/1;
 7//1,2,3,16;
 1/18=20,19=15,26=3/3(2);
 2/9=110/2;
 99//99;
 2/9=110/2;
 3/5=1,6=6,11=2,25=1,30=1,70=2205,71=1,72=1,74=-5/1,2,3;
 4/5=5,16=3,69=1/1;
 5/5=2,38=5,53=1/2;
 7//1,2,3,16;
 1/18=20,19=15,26=3/3(-5);
 2/9=110/2;
 6/7=2,8=2,9=2,10=2,19=2,28=1/1;
 99/9=1/99;
 Leave Link    1 at Wed Apr  2 18:58:19 2025, MaxMem=  1048576000 cpu:               0.4 elap:               0.2
 (Enter /opt/rit/el9/20230413/app/linux-rhel9-x86_64_v3/gcc-11.2.1/gaussian-16-C.01-3yzt2xlc3n3d45c3wnnzh2wvb3eacy2v/g16/l101.exe)
 ---------------------
 Geometry Optimization
 ---------------------
 Symbolic Z-matrix:
 Charge =  0 Multiplicity = 1
 C
 N                    1     1.44113 
 C                    2     1.38488  1     107.68583 
 C                    3     1.34848  2     124.75492  1     165.39323  0
 C                    4     1.35071  3     121.45773  2    -179.49155  0
 H                    5     1.10359  4     121.11166  3    -0.10007  0
 C                    5     1.34432  4     122.07353  3     179.84343  0
 C                    7     1.33804  5     118.74097  4    -0.37124  0
 N                    8     1.37497  7     128.13198  5    -179.57298  0
 C                    9     1.37485  8     101.72465  7    -176.90815  0
 C                    10    1.34271  9     112.01341  8    -2.46414  0
 C                    11    1.34384  10    107.0914  9     1.64226  0
 C                    12    1.33925  11    131.52296  10    178.62894  0
 H                    13    1.10174  12    118.35082  11    1.03093  0
 C                    11    1.33921  10    121.40091  9    -179.41023  0
 C                    15    1.3493   11    119.56231  10   -0.20026  0
 C                    16    1.34844  15    120.30048  11    179.44067  0
 N                    17    1.38455  16    124.82546  15    0.37866  0
 C                    18    1.44103  17    107.53009  16    166.02777  0
 C                    19    1.53104  18    104.06038  17    21.3719  0
 N                    20    1.47761  19    99.46216  18   -20.22127  0
 H                    20    1.11539  21    110.10868  17    133.44295  0
 H                    20    1.11563  21    108.18726  17   -104.56449  0
 H                    19    1.11588  20    110.74898  21    96.47193  0
 H                    19    1.11535  20    113.25408  21   -140.53168  0
 H                    18    1.01911  19    116.14236  20    151.0205  0
 C                    16    1.35057  15    118.34292  11   -0.52606  0
 C                    27    1.34399  16    122.1532  15    0.44178  0
 H                    28    1.10343  27    121.04422  16    179.72716  0
 H                    27    1.10328  28    116.71658  29   -0.02017  0
 H                    15    1.10159  16    122.04345  17   -0.55887  0
 H                    9     1.01849  8     123.42474  7    -32.75057  0
 H                    7     1.10335  8     120.13593  9    -0.08542  0
 N                    3     1.26669  4     124.41713  5    -0.49127  0
 C                    1     1.53129  2     104.28788  3     19.82952  0
 H                    35    1.11531  1     113.72921  2    -134.86351  0
 H                    35    1.11539  1     113.02978  2     96.74784  0
 H                    2     1.01925  1     115.9703  35    149.27986  0
 H                    1     1.11583  2     110.66396  3     141.7407  0
 H                    1     1.116    2     108.6679  3    -98.41103  0
 
 ITRead=  0  0  0  0  0  0  0  0  0  0  0  0  0  0  0  0  0  0  0  0
 ITRead=  0  0  0  0  0  0  0  0  0  0  0  0  0  0  0  0  0  0  0  0
 MicOpt= -1 -1 -1 -1 -1 -1 -1 -1 -1 -1 -1 -1 -1 -1 -1 -1 -1 -1 -1 -1
 MicOpt= -1 -1 -1 -1 -1 -1 -1 -1 -1 -1 -1 -1 -1 -1 -1 -1 -1 -1 -1 -1
 NAtoms=     40 NQM=       40 NQMF=       0 NMMI=      0 NMMIF=      0
                NMic=       0 NMicF=      0.
                    Isotopes and Nuclear Properties:
 (Nuclear quadrupole moments (NQMom) in fm**2, nuclear magnetic moments (NMagM)
  in nuclear magnetons)

  Atom         1           2           3           4           5           6           7           8           9          10
 IAtWgt=          12          14          12          12          12           1          12          12          14          12
 AtmWgt=  12.0000000  14.0030740  12.0000000  12.0000000  12.0000000   1.0078250  12.0000000  12.0000000  14.0030740  12.0000000
 NucSpn=           0           2           0           0           0           1           0           0           2           0
 AtZEff=  -0.0000000  -0.0000000  -0.0000000  -0.0000000  -0.0000000  -0.0000000  -0.0000000  -0.0000000  -0.0000000  -0.0000000
 NQMom=    0.0000000   2.0440000   0.0000000   0.0000000   0.0000000   0.0000000   0.0000000   0.0000000   2.0440000   0.0000000
 NMagM=    0.0000000   0.4037610   0.0000000   0.0000000   0.0000000   2.7928460   0.0000000   0.0000000   0.4037610   0.0000000
 AtZNuc=   6.0000000   7.0000000   6.0000000   6.0000000   6.0000000   1.0000000   6.0000000   6.0000000   7.0000000   6.0000000

  Atom        11          12          13          14          15          16          17          18          19          20
 IAtWgt=          12          12          12           1          12          12          12          14          12          12
 AtmWgt=  12.0000000  12.0000000  12.0000000   1.0078250  12.0000000  12.0000000  12.0000000  14.0030740  12.0000000  12.0000000
 NucSpn=           0           0           0           1           0           0           0           2           0           0
 AtZEff=  -0.0000000  -0.0000000  -0.0000000  -0.0000000  -0.0000000  -0.0000000  -0.0000000  -0.0000000  -0.0000000  -0.0000000
 NQMom=    0.0000000   0.0000000   0.0000000   0.0000000   0.0000000   0.0000000   0.0000000   2.0440000   0.0000000   0.0000000
 NMagM=    0.0000000   0.0000000   0.0000000   2.7928460   0.0000000   0.0000000   0.0000000   0.4037610   0.0000000   0.0000000
 AtZNuc=   6.0000000   6.0000000   6.0000000   1.0000000   6.0000000   6.0000000   6.0000000   7.0000000   6.0000000   6.0000000

  Atom        21          22          23          24          25          26          27          28          29          30
 IAtWgt=          14           1           1           1           1           1          12          12           1           1
 AtmWgt=  14.0030740   1.0078250   1.0078250   1.0078250   1.0078250   1.0078250  12.0000000  12.0000000   1.0078250   1.0078250
 NucSpn=           2           1           1           1           1           1           0           0           1           1
 AtZEff=  -0.0000000  -0.0000000  -0.0000000  -0.0000000  -0.0000000  -0.0000000  -0.0000000  -0.0000000  -0.0000000  -0.0000000
 NQMom=    2.0440000   0.0000000   0.0000000   0.0000000   0.0000000   0.0000000   0.0000000   0.0000000   0.0000000   0.0000000
 NMagM=    0.4037610   2.7928460   2.7928460   2.7928460   2.7928460   2.7928460   0.0000000   0.0000000   2.7928460   2.7928460
 AtZNuc=   7.0000000   1.0000000   1.0000000   1.0000000   1.0000000   1.0000000   6.0000000   6.0000000   1.0000000   1.0000000

  Atom        31          32          33          34          35          36          37          38          39          40
 IAtWgt=           1           1           1          14          12           1           1           1           1           1
 AtmWgt=   1.0078250   1.0078250   1.0078250  14.0030740  12.0000000   1.0078250   1.0078250   1.0078250   1.0078250   1.0078250
 NucSpn=           1           1           1           2           0           1           1           1           1           1
 AtZEff=  -0.0000000  -0.0000000  -0.0000000  -0.0000000  -0.0000000  -0.0000000  -0.0000000  -0.0000000  -0.0000000  -0.0000000
 NQMom=    0.0000000   0.0000000   0.0000000   2.0440000   0.0000000   0.0000000   0.0000000   0.0000000   0.0000000   0.0000000
 NMagM=    2.7928460   2.7928460   2.7928460   0.4037610   0.0000000   2.7928460   2.7928460   2.7928460   2.7928460   2.7928460
 AtZNuc=   1.0000000   1.0000000   1.0000000   7.0000000   6.0000000   1.0000000   1.0000000   1.0000000   1.0000000   1.0000000
 Leave Link  101 at Wed Apr  2 18:58:20 2025, MaxMem=  1048576000 cpu:               1.1 elap:               0.6
 (Enter /opt/rit/el9/20230413/app/linux-rhel9-x86_64_v3/gcc-11.2.1/gaussian-16-C.01-3yzt2xlc3n3d45c3wnnzh2wvb3eacy2v/g16/l103.exe)

 GradGradGradGradGradGradGradGradGradGradGradGradGradGradGradGradGradGrad
 Berny optimization.
 Initialization pass.
                           ----------------------------
                           !    Initial Parameters    !
                           ! (Angstroms and Degrees)  !
 --------------------------                            --------------------------
 ! Name  Definition              Value          Derivative Info.                !
 --------------------------------------------------------------------------------
 ! R1    R(1,2)                  1.4411         estimate D2E/DX2                !
 ! R2    R(1,35)                 1.5313         estimate D2E/DX2                !
 ! R3    R(1,39)                 1.1158         estimate D2E/DX2                !
 ! R4    R(1,40)                 1.116          estimate D2E/DX2                !
 ! R5    R(2,3)                  1.3849         estimate D2E/DX2                !
 ! R6    R(2,38)                 1.0192         estimate D2E/DX2                !
 ! R7    R(3,4)                  1.3485         estimate D2E/DX2                !
 ! R8    R(3,34)                 1.2667         estimate D2E/DX2                !
 ! R9    R(4,5)                  1.3507         estimate D2E/DX2                !
 ! R10   R(4,13)                 1.3496         estimate D2E/DX2                !
 ! R11   R(5,6)                  1.1036         estimate D2E/DX2                !
 ! R12   R(5,7)                  1.3443         estimate D2E/DX2                !
 ! R13   R(7,8)                  1.338          estimate D2E/DX2                !
 ! R14   R(7,33)                 1.1033         estimate D2E/DX2                !
 ! R15   R(8,9)                  1.375          estimate D2E/DX2                !
 ! R16   R(8,12)                 1.3426         estimate D2E/DX2                !
 ! R17   R(9,10)                 1.3748         estimate D2E/DX2                !
 ! R18   R(9,32)                 1.0185         estimate D2E/DX2                !
 ! R19   R(10,11)                1.3427         estimate D2E/DX2                !
 ! R20   R(10,28)                1.3379         estimate D2E/DX2                !
 ! R21   R(11,12)                1.3438         estimate D2E/DX2                !
 ! R22   R(11,15)                1.3392         estimate D2E/DX2                !
 ! R23   R(12,13)                1.3392         estimate D2E/DX2                !
 ! R24   R(13,14)                1.1017         estimate D2E/DX2                !
 ! R25   R(15,16)                1.3493         estimate D2E/DX2                !
 ! R26   R(15,31)                1.1016         estimate D2E/DX2                !
 ! R27   R(16,17)                1.3484         estimate D2E/DX2                !
 ! R28   R(16,27)                1.3506         estimate D2E/DX2                !
 ! R29   R(17,18)                1.3845         estimate D2E/DX2                !
 ! R30   R(17,21)                1.2669         estimate D2E/DX2                !
 ! R31   R(18,19)                1.441          estimate D2E/DX2                !
 ! R32   R(18,26)                1.0191         estimate D2E/DX2                !
 ! R33   R(19,20)                1.531          estimate D2E/DX2                !
 ! R34   R(19,24)                1.1159         estimate D2E/DX2                !
 ! R35   R(19,25)                1.1153         estimate D2E/DX2                !
 ! R36   R(20,21)                1.4776         estimate D2E/DX2                !
 ! R37   R(20,22)                1.1154         estimate D2E/DX2                !
 ! R38   R(20,23)                1.1156         estimate D2E/DX2                !
 ! R39   R(27,28)                1.344          estimate D2E/DX2                !
 ! R40   R(27,30)                1.1033         estimate D2E/DX2                !
 ! R41   R(28,29)                1.1034         estimate D2E/DX2                !
 ! R42   R(34,35)                1.4773         estimate D2E/DX2                !
 ! R43   R(35,36)                1.1153         estimate D2E/DX2                !
 ! R44   R(35,37)                1.1154         estimate D2E/DX2                !
 ! A1    A(2,1,35)             104.2879         estimate D2E/DX2                !
 ! A2    A(2,1,39)             110.664          estimate D2E/DX2                !
 ! A3    A(2,1,40)             108.6679         estimate D2E/DX2                !
 ! A4    A(35,1,39)            113.0919         estimate D2E/DX2                !
 ! A5    A(35,1,40)            110.8192         estimate D2E/DX2                !
 ! A6    A(39,1,40)            109.1616         estimate D2E/DX2                !
 ! A7    A(1,2,3)              107.6858         estimate D2E/DX2                !
 ! A8    A(1,2,38)             115.9703         estimate D2E/DX2                !
 ! A9    A(3,2,38)             114.281          estimate D2E/DX2                !
 ! A10   A(2,3,4)              124.7549         estimate D2E/DX2                !
 ! A11   A(2,3,34)             110.8216         estimate D2E/DX2                !
 ! A12   A(4,3,34)             124.4171         estimate D2E/DX2                !
 ! A13   A(3,4,5)              121.4577         estimate D2E/DX2                !
 ! A14   A(3,4,13)             120.1905         estimate D2E/DX2                !
 ! A15   A(5,4,13)             118.3509         estimate D2E/DX2                !
 ! A16   A(4,5,6)              121.1117         estimate D2E/DX2                !
 ! A17   A(4,5,7)              122.0735         estimate D2E/DX2                !
 ! A18   A(6,5,7)              116.8148         estimate D2E/DX2                !
 ! A19   A(5,7,8)              118.741          estimate D2E/DX2                !
 ! A20   A(5,7,33)             121.1211         estimate D2E/DX2                !
 ! A21   A(8,7,33)             120.1359         estimate D2E/DX2                !
 ! A22   A(7,8,9)              128.132          estimate D2E/DX2                !
 ! A23   A(7,8,12)             119.842          estimate D2E/DX2                !
 ! A24   A(9,8,12)             112.023          estimate D2E/DX2                !
 ! A25   A(8,9,10)             101.7247         estimate D2E/DX2                !
 ! A26   A(8,9,32)             123.4247         estimate D2E/DX2                !
 ! A27   A(10,9,32)            123.4019         estimate D2E/DX2                !
 ! A28   A(9,10,11)            112.0134         estimate D2E/DX2                !
 ! A29   A(9,10,28)            128.1174         estimate D2E/DX2                !
 ! A30   A(11,10,28)           119.8674         estimate D2E/DX2                !
 ! A31   A(10,11,12)           107.0914         estimate D2E/DX2                !
 ! A32   A(10,11,15)           121.4009         estimate D2E/DX2                !
 ! A33   A(12,11,15)           131.4972         estimate D2E/DX2                !
 ! A34   A(8,12,11)            107.0831         estimate D2E/DX2                !
 ! A35   A(8,12,13)            121.3807         estimate D2E/DX2                !
 ! A36   A(11,12,13)           131.523          estimate D2E/DX2                !
 ! A37   A(4,13,12)            119.6008         estimate D2E/DX2                !
 ! A38   A(4,13,14)            122.0457         estimate D2E/DX2                !
 ! A39   A(12,13,14)           118.3508         estimate D2E/DX2                !
 ! A40   A(11,15,16)           119.5623         estimate D2E/DX2                !
 ! A41   A(11,15,31)           118.3942         estimate D2E/DX2                !
 ! A42   A(16,15,31)           122.0434         estimate D2E/DX2                !
 ! A43   A(15,16,17)           120.3005         estimate D2E/DX2                !
 ! A44   A(15,16,27)           118.3429         estimate D2E/DX2                !
 ! A45   A(17,16,27)           121.3566         estimate D2E/DX2                !
 ! A46   A(16,17,18)           124.8255         estimate D2E/DX2                !
 ! A47   A(16,17,21)           124.3978         estimate D2E/DX2                !
 ! A48   A(18,17,21)           110.7758         estimate D2E/DX2                !
 ! A49   A(17,18,19)           107.5301         estimate D2E/DX2                !
 ! A50   A(17,18,26)           114.4242         estimate D2E/DX2                !
 ! A51   A(19,18,26)           116.1424         estimate D2E/DX2                !
 ! A52   A(18,19,20)           104.0604         estimate D2E/DX2                !
 ! A53   A(18,19,24)           108.749          estimate D2E/DX2                !
 ! A54   A(18,19,25)           110.7246         estimate D2E/DX2                !
 ! A55   A(20,19,24)           110.749          estimate D2E/DX2                !
 ! A56   A(20,19,25)           113.2541         estimate D2E/DX2                !
 ! A57   A(24,19,25)           109.1488         estimate D2E/DX2                !
 ! A58   A(19,20,21)            99.4622         estimate D2E/DX2                !
 ! A59   A(19,20,22)           113.8015         estimate D2E/DX2                !
 ! A60   A(19,20,23)           113.0714         estimate D2E/DX2                !
 ! A61   A(21,20,22)           110.1087         estimate D2E/DX2                !
 ! A62   A(21,20,23)           108.1873         estimate D2E/DX2                !
 ! A63   A(22,20,23)           111.4291         estimate D2E/DX2                !
 ! A64   A(17,21,20)           113.3117         estimate D2E/DX2                !
 ! A65   A(16,27,28)           122.1532         estimate D2E/DX2                !
 ! A66   A(16,27,30)           121.1297         estimate D2E/DX2                !
 ! A67   A(28,27,30)           116.7166         estimate D2E/DX2                !
 ! A68   A(10,28,27)           118.6627         estimate D2E/DX2                !
 ! A69   A(10,28,29)           120.2899         estimate D2E/DX2                !
 ! A70   A(27,28,29)           121.0442         estimate D2E/DX2                !
 ! A71   A(3,34,35)            113.441          estimate D2E/DX2                !
 ! A72   A(1,35,34)             99.7674         estimate D2E/DX2                !
 ! A73   A(1,35,36)            113.7292         estimate D2E/DX2                !
 ! A74   A(1,35,37)            113.0298         estimate D2E/DX2                !
 ! A75   A(34,35,36)           109.9293         estimate D2E/DX2                !
 ! A76   A(34,35,37)           108.1685         estimate D2E/DX2                !
 ! A77   A(36,35,37)           111.4541         estimate D2E/DX2                !
 ! D1    D(35,1,2,3)            19.8295         estimate D2E/DX2                !
 ! D2    D(35,1,2,38)          149.2799         estimate D2E/DX2                !
 ! D3    D(39,1,2,3)           141.7407         estimate D2E/DX2                !
 ! D4    D(39,1,2,38)          -88.809          estimate D2E/DX2                !
 ! D5    D(40,1,2,3)           -98.411          estimate D2E/DX2                !
 ! D6    D(40,1,2,38)           31.0393         estimate D2E/DX2                !
 ! D7    D(2,1,35,34)          -17.8959         estimate D2E/DX2                !
 ! D8    D(2,1,35,36)         -134.8635         estimate D2E/DX2                !
 ! D9    D(2,1,35,37)           96.7478         estimate D2E/DX2                !
 ! D10   D(39,1,35,34)        -138.191          estimate D2E/DX2                !
 ! D11   D(39,1,35,36)         104.8415         estimate D2E/DX2                !
 ! D12   D(39,1,35,37)         -23.5472         estimate D2E/DX2                !
 ! D13   D(40,1,35,34)          98.8612         estimate D2E/DX2                !
 ! D14   D(40,1,35,36)         -18.1063         estimate D2E/DX2                !
 ! D15   D(40,1,35,37)        -146.495          estimate D2E/DX2                !
 ! D16   D(1,2,3,4)            165.3932         estimate D2E/DX2                !
 ! D17   D(1,2,3,34)           -13.7244         estimate D2E/DX2                !
 ! D18   D(38,2,3,4)            34.9961         estimate D2E/DX2                !
 ! D19   D(38,2,3,34)         -144.1215         estimate D2E/DX2                !
 ! D20   D(2,3,4,5)           -179.4916         estimate D2E/DX2                !
 ! D21   D(2,3,4,13)             0.8616         estimate D2E/DX2                !
 ! D22   D(34,3,4,5)            -0.4913         estimate D2E/DX2                !
 ! D23   D(34,3,4,13)          179.8619         estimate D2E/DX2                !
 ! D24   D(2,3,34,35)            0.9631         estimate D2E/DX2                !
 ! D25   D(4,3,34,35)         -178.1581         estimate D2E/DX2                !
 ! D26   D(3,4,5,6)             -0.1001         estimate D2E/DX2                !
 ! D27   D(3,4,5,7)            179.8434         estimate D2E/DX2                !
 ! D28   D(13,4,5,6)           179.5531         estimate D2E/DX2                !
 ! D29   D(13,4,5,7)            -0.5034         estimate D2E/DX2                !
 ! D30   D(3,4,13,12)         -179.7131         estimate D2E/DX2                !
 ! D31   D(3,4,13,14)            0.8962         estimate D2E/DX2                !
 ! D32   D(5,4,13,12)            0.6292         estimate D2E/DX2                !
 ! D33   D(5,4,13,14)         -178.7615         estimate D2E/DX2                !
 ! D34   D(4,5,7,8)             -0.3712         estimate D2E/DX2                !
 ! D35   D(4,5,7,33)          -179.8536         estimate D2E/DX2                !
 ! D36   D(6,5,7,8)            179.5746         estimate D2E/DX2                !
 ! D37   D(6,5,7,33)             0.0922         estimate D2E/DX2                !
 ! D38   D(5,7,8,9)           -179.573          estimate D2E/DX2                !
 ! D39   D(5,7,8,12)             1.1144         estimate D2E/DX2                !
 ! D40   D(33,7,8,9)            -0.0854         estimate D2E/DX2                !
 ! D41   D(33,7,8,12)         -179.3981         estimate D2E/DX2                !
 ! D42   D(7,8,9,10)          -176.9081         estimate D2E/DX2                !
 ! D43   D(7,8,9,32)           -32.7506         estimate D2E/DX2                !
 ! D44   D(12,8,9,10)            2.4487         estimate D2E/DX2                !
 ! D45   D(12,8,9,32)          146.6063         estimate D2E/DX2                !
 ! D46   D(7,8,12,11)          177.8155         estimate D2E/DX2                !
 ! D47   D(7,8,12,13)           -1.0034         estimate D2E/DX2                !
 ! D48   D(9,8,12,11)           -1.6013         estimate D2E/DX2                !
 ! D49   D(9,8,12,13)          179.5798         estimate D2E/DX2                !
 ! D50   D(8,9,10,11)           -2.4641         estimate D2E/DX2                !
 ! D51   D(8,9,10,28)          177.0435         estimate D2E/DX2                !
 ! D52   D(32,9,10,11)        -146.6326         estimate D2E/DX2                !
 ! D53   D(32,9,10,28)          32.8751         estimate D2E/DX2                !
 ! D54   D(9,10,11,12)           1.6423         estimate D2E/DX2                !
 ! D55   D(9,10,11,15)        -179.4102         estimate D2E/DX2                !
 ! D56   D(28,10,11,12)       -177.9111         estimate D2E/DX2                !
 ! D57   D(28,10,11,15)          1.0364         estimate D2E/DX2                !
 ! D58   D(9,10,28,27)         179.423          estimate D2E/DX2                !
 ! D59   D(9,10,28,29)           0.0666         estimate D2E/DX2                !
 ! D60   D(11,10,28,27)         -1.1033         estimate D2E/DX2                !
 ! D61   D(11,10,28,29)        179.5403         estimate D2E/DX2                !
 ! D62   D(10,11,12,8)          -0.0242         estimate D2E/DX2                !
 ! D63   D(10,11,12,13)        178.6289         estimate D2E/DX2                !
 ! D64   D(15,11,12,8)        -178.8248         estimate D2E/DX2                !
 ! D65   D(15,11,12,13)         -0.1716         estimate D2E/DX2                !
 ! D66   D(10,11,15,16)         -0.2003         estimate D2E/DX2                !
 ! D67   D(10,11,15,31)        179.7993         estimate D2E/DX2                !
 ! D68   D(12,11,15,16)        178.4565         estimate D2E/DX2                !
 ! D69   D(12,11,15,31)         -1.5439         estimate D2E/DX2                !
 ! D70   D(8,12,13,4)            0.1098         estimate D2E/DX2                !
 ! D71   D(8,12,13,14)         179.5229         estimate D2E/DX2                !
 ! D72   D(11,12,13,4)        -178.3822         estimate D2E/DX2                !
 ! D73   D(11,12,13,14)          1.0309         estimate D2E/DX2                !
 ! D74   D(11,15,16,17)        179.4407         estimate D2E/DX2                !
 ! D75   D(11,15,16,27)         -0.5261         estimate D2E/DX2                !
 ! D76   D(31,15,16,17)         -0.5589         estimate D2E/DX2                !
 ! D77   D(31,15,16,27)        179.4744         estimate D2E/DX2                !
 ! D78   D(15,16,17,18)          0.3787         estimate D2E/DX2                !
 ! D79   D(15,16,17,21)        179.9862         estimate D2E/DX2                !
 ! D80   D(27,16,17,18)       -179.6556         estimate D2E/DX2                !
 ! D81   D(27,16,17,21)         -0.0481         estimate D2E/DX2                !
 ! D82   D(15,16,27,28)          0.4418         estimate D2E/DX2                !
 ! D83   D(15,16,27,30)       -179.8219         estimate D2E/DX2                !
 ! D84   D(17,16,27,28)       -179.5246         estimate D2E/DX2                !
 ! D85   D(17,16,27,30)          0.2118         estimate D2E/DX2                !
 ! D86   D(16,17,18,19)        166.0278         estimate D2E/DX2                !
 ! D87   D(16,17,18,26)         35.4164         estimate D2E/DX2                !
 ! D88   D(21,17,18,19)        -13.6259         estimate D2E/DX2                !
 ! D89   D(21,17,18,26)       -144.2373         estimate D2E/DX2                !
 ! D90   D(16,17,21,20)        179.4754         estimate D2E/DX2                !
 ! D91   D(18,17,21,20)         -0.8692         estimate D2E/DX2                !
 ! D92   D(17,18,19,20)         21.3719         estimate D2E/DX2                !
 ! D93   D(17,18,19,24)        -96.7074         estimate D2E/DX2                !
 ! D94   D(17,18,19,25)        143.372          estimate D2E/DX2                !
 ! D95   D(26,18,19,20)        151.0205         estimate D2E/DX2                !
 ! D96   D(26,18,19,24)         32.9412         estimate D2E/DX2                !
 ! D97   D(26,18,19,25)        -86.9794         estimate D2E/DX2                !
 ! D98   D(18,19,20,21)        -20.2213         estimate D2E/DX2                !
 ! D99   D(18,19,20,22)       -137.2512         estimate D2E/DX2                !
 ! D100  D(18,19,20,23)         94.2935         estimate D2E/DX2                !
 ! D101  D(24,19,20,21)         96.4719         estimate D2E/DX2                !
 ! D102  D(24,19,20,22)        -20.558          estimate D2E/DX2                !
 ! D103  D(24,19,20,23)       -149.0133         estimate D2E/DX2                !
 ! D104  D(25,19,20,21)       -140.5317         estimate D2E/DX2                !
 ! D105  D(25,19,20,22)        102.4384         estimate D2E/DX2                !
 ! D106  D(25,19,20,23)        -26.0169         estimate D2E/DX2                !
 ! D107  D(19,20,21,17)         13.6601         estimate D2E/DX2                !
 ! D108  D(22,20,21,17)        133.443          estimate D2E/DX2                !
 ! D109  D(23,20,21,17)       -104.5645         estimate D2E/DX2                !
 ! D110  D(16,27,28,10)          0.3758         estimate D2E/DX2                !
 ! D111  D(16,27,28,29)        179.7272         estimate D2E/DX2                !
 ! D112  D(30,27,28,10)       -179.3715         estimate D2E/DX2                !
 ! D113  D(30,27,28,29)         -0.0202         estimate D2E/DX2                !
 ! D114  D(3,34,35,1)           11.0446         estimate D2E/DX2                !
 ! D115  D(3,34,35,36)         130.8304         estimate D2E/DX2                !
 ! D116  D(3,34,35,37)        -107.2683         estimate D2E/DX2                !
 --------------------------------------------------------------------------------
 Trust Radius=3.00D-01 FncErr=1.00D-07 GrdErr=1.00D-06 EigMax=2.50D+02 EigMin=1.00D-04
 Number of steps in this run=    240 maximum allowed number of steps=    240.
 GradGradGradGradGradGradGradGradGradGradGradGradGradGradGradGradGradGrad

 Leave Link  103 at Wed Apr  2 18:58:20 2025, MaxMem=  1048576000 cpu:               0.2 elap:               0.1
 (Enter /opt/rit/el9/20230413/app/linux-rhel9-x86_64_v3/gcc-11.2.1/gaussian-16-C.01-3yzt2xlc3n3d45c3wnnzh2wvb3eacy2v/g16/l202.exe)
                          Input orientation:                          
 ---------------------------------------------------------------------
 Center     Atomic      Atomic             Coordinates (Angstroms)
 Number     Number       Type             X           Y           Z
 ---------------------------------------------------------------------
      1          6           0        0.000000    0.000000    0.000000
      2          7           0        0.000000    0.000000    1.441133
      3          6           0        1.319423    0.000000    1.861855
      4          6           0        1.726114    0.279397    3.116821
      5          6           0        3.034437    0.269706    3.452419
      6          1           0        3.812506    0.030373    2.707282
      7          6           0        3.453802    0.549286    4.698676
      8          6           0        2.543337    0.853283    5.630872
      9          7           0        2.754603    1.175744    6.950689
     10          6           0        1.467534    1.311879    7.414507
     11          6           0        0.560461    1.141337    6.439308
     12          6           0        1.238322    0.852061    5.315600
     13          6           0        0.820970    0.570721    4.074533
     14          1           0       -0.262159    0.576186    3.872963
     15          6           0       -0.752541    1.245008    6.681735
     16          6           0       -1.178871    1.522636    7.931443
     17          6           0       -2.496952    1.641478    8.189935
     18          7           0       -3.503482    1.491495    7.251120
     19          6           0       -4.748222    1.363919    7.965898
     20          6           0       -4.457042    1.986536    9.333984
     21          7           0       -2.981994    1.899590    9.331455
     22          1           0       -4.873914    1.406316   10.190526
     23          1           0       -4.742281    3.063418    9.393869
     24          1           0       -4.993254    0.280150    8.068856
     25          1           0       -5.573229    1.874920    7.416133
     26          1           0       -3.317347    0.782205    6.543414
     27          6           0       -0.255150    1.676825    8.904589
     28          6           0        1.062722    1.571132    8.663049
     29          1           0        1.801904    1.705006    9.471282
     30          1           0       -0.552648    1.901696    9.942934
     31          1           0       -1.453021    1.098883    5.844195
     32          1           0        3.513503    0.788011    7.508411
     33          1           0        4.526919    0.539125    4.954986
     34          7           0        2.097816   -0.280899    0.902842
     35          6           0        1.395932   -0.503379   -0.377912
     36          1           0        1.883356    0.090156   -1.186647
     37          1           0        1.419913   -1.595664   -0.602483
     38          1           0       -0.582241    0.707563    1.887466
     39          1           0       -0.819799   -0.646493   -0.393760
     40          1           0       -0.154652    1.045910   -0.357210
 ---------------------------------------------------------------------
                    Distance matrix (angstroms):
                    1          2          3          4          5
     1  C    0.000000
     2  N    1.441133   0.000000
     3  C    2.281969   1.384877   0.000000
     4  C    3.573809   2.421872   1.348481   0.000000
     5  C    4.604318   3.650454   2.354550   1.350713   0.000000
     6  H    4.676056   4.017369   2.632704   2.140739   1.103585
     7  C    5.857305   4.779336   3.592331   2.357967   1.344318
     8  C    6.237257   4.974994   4.053584   2.705115   2.308116
     9  N    7.568507   6.270998   5.416489   4.069370   3.624515
    10  C    7.671349   6.289346   5.707443   4.427526   4.386280
    11  C    6.563647   5.157375   4.778258   3.624998   3.975148
    12  C    5.524043   4.155833   3.558222   2.323901   2.652661
    13  C    4.195418   2.816826   2.338829   1.349580   2.318851
    14  H    3.924354   2.512870   2.622584   2.147805   3.337414
    15  C    6.838271   5.438775   5.392061   4.448005   5.071577
    16  C    8.161859   6.769954   6.737937   5.758921   6.275624
    17  C    8.718042   7.380755   7.569925   6.739884   7.410943
    18  N    8.190097   6.946575   7.384386   6.775713   7.659457
    19  C    9.373443   8.184037   8.714123   8.161297   9.063034
    20  C   10.532560   9.279475   9.651248   8.933021   9.677942
    21  N    9.978817   8.646266   8.826413   7.963227   8.568374
    22  H   11.383303  10.113587  10.473868   9.740001  10.451602
    23  H   10.959860   9.752936  10.141993   9.433570  10.177573
    24  H    9.493024   8.302878   8.857496   8.347009   9.260422
    25  H    9.464419   8.383128   9.048425   8.620336   9.611434
    26  H    7.377866   6.135952   6.635396   6.118076   7.082518
    27  C    9.064687   7.653758   7.408854   6.275067   6.521313
    28  C    8.868273   7.466854   6.985026   5.733177   5.721192
    29  H    9.790765   8.404594   7.813015   6.512854   6.309194
    30  H   10.138235   8.729404   8.510284   7.377020   7.593244
    31  H    6.121554   4.765057   4.975241   4.268141   5.152224
    32  H    8.327179   7.055319   6.108891   4.768596   4.116943
    33  H    6.733167   5.755938   4.488446   3.360181   2.134901
    34  N    2.301056   2.183917   1.266691   2.313828   2.771419
    35  C    1.531285   2.347540   2.296911   3.596515   4.237192
    36  H    2.227843   3.234251   3.101533   4.310496   4.783111
    37  H    2.219298   2.956123   2.937551   4.176462   4.746422
    38  H    2.098137   1.019246   2.029194   2.650121   3.964991
    39  H    1.115828   2.111127   3.175221   4.434313   5.521562
    40  H    1.115995   2.086117   2.862006   4.024142   5.028524
                    6          7          8          9         10
     6  H    0.000000
     7  C    2.088921   0.000000
     8  C    3.291709   1.338040   0.000000
     9  N    4.520790   2.439855   1.374966   0.000000
    10  C    5.412866   3.450007   2.132842   1.374847   0.000000
    11  C    5.073269   3.428082   2.160634   2.253209   1.342713
    12  C    3.755652   2.319617   1.342558   2.253308   2.160875
    13  C    3.333262   2.705886   2.338500   3.518134   3.481780
    14  H    4.273127   3.806690   3.322324   4.351175   4.009441
    15  C    6.173432   4.702113   3.481461   3.518123   2.338837
    16  C    7.377842   5.732351   4.426680   4.068713   2.704644
    17  C    8.512603   6.985216   5.707413   5.415853   4.053032
    18  N    8.735275   7.470377   6.292578   6.273243   4.976943
    19  C   10.134962   8.866317   7.673326   7.573536   6.240382
    20  C   10.776139   9.280798   8.000163   7.638409   6.264196
    21  N    9.671550   8.043969   6.731891   6.253042   4.880409
    22  H   11.547556  10.012281   8.724214   8.291199   6.923089
    23  H   11.273606   9.774532   8.492648   8.107755   6.748893
    24  H   10.312627   9.098533   7.941816   7.879192   6.575288
    25  H   10.661503   9.519935   8.373144   8.370082   7.063240
    26  H    8.131172   7.021806   5.931728   6.098304   4.892284
    27  C    7.593632   5.719910   4.384857   3.623178   2.306766
    28  C    6.738428   4.741064   3.449873   2.439460   1.337887
    29  H    7.252490   5.180948   4.002986   2.746113   2.120536
    30  H    8.655119   6.736683   5.410931   4.518677   3.289675
    31  H    6.221552   5.068647   4.009577   4.351360   3.322784
    32  H    4.869729   2.820491   2.114388   1.018490   2.114059
    33  H    2.412756   1.103349   2.118990   2.743943   4.000779
    34  N    2.508596   4.115369   4.882533   6.255369   6.733200
    35  C    3.955141   5.578053   6.265984   7.640278   8.001380
    36  H    4.346018   6.108529   6.891770   8.255532   8.697434
    37  H    4.395798   6.069580   6.790739   8.155520   8.528083
    38  H    4.521557   4.921137   4.878889   6.081936   5.925787
    39  H    5.615413   6.754737   7.060893   8.368861   8.368761
    40  H    5.114760   6.231337   6.570645   7.866767   7.943665
                   11         12         13         14         15
    11  C    0.000000
    12  C    1.343836   0.000000
    13  C    2.446555   1.339247   0.000000
    14  H    2.753585   2.099703   1.101739   0.000000
    15  C    1.339213   2.446276   3.118991   2.928652   0.000000
    16  C    2.323173   3.624241   4.447614   4.267012   1.349298
    17  C    3.558456   4.778833   5.393669   4.976485   2.339835
    18  N    4.159000   5.161378   5.444210   4.770316   2.820042
    19  C    5.528303   6.566947   6.840161   6.123513   4.198653
    20  C    5.853960   7.061983   7.584443   7.029145   4.616017
    21  N    4.635563   5.919077   6.622965   6.240516   3.524196
    22  H    6.608652   7.837827   8.398530   7.865685   5.415104
    23  H    6.367330   7.569015   8.090651   7.532478   5.155610
    24  H    5.851565   6.836668   7.060046   6.330594   4.564943
    25  H    6.254158   7.201090   7.331645   6.515231   4.916825
    26  H    3.895794   4.718742   4.823460   4.062995   2.609895
    27  C    2.651335   3.973856   5.070596   5.150604   2.318392
    28  C    2.319917   3.428311   4.702526   5.068546   2.706869
    29  H    3.324420   4.279583   5.601226   6.072542   3.810296
    30  H    3.754005   5.071639   6.172233   6.219800   3.332659
    31  H    2.100018   2.753845   2.929453   2.361593   1.101590
    32  H    3.160424   3.160534   4.369036   5.245663   4.369367
    33  H    4.277694   3.323078   3.809233   4.909931   5.599342
    34  N    5.919347   4.636245   3.523523   3.889177   6.621823
    35  C    7.062407   5.854754   4.616117   4.688781   7.583628
    36  H    7.810904   6.578433   5.388841   5.517164   8.378130
    37  H    7.603727   6.406875   5.189068   5.251277   8.114728
    38  H    4.713087   3.884254   2.602112   2.015418   4.827304
    39  H    7.196685   6.251266   4.913184   4.473347   7.324271
    40  H    6.834702   5.844547   4.562673   4.257530   7.067097
                   16         17         18         19         20
    16  C    0.000000
    17  C    1.348436   0.000000
    18  N    2.422318   1.384547   0.000000
    19  C    3.573044   2.279353   1.441028   0.000000
    20  C    3.595654   2.295619   2.343643   1.531045   0.000000
    21  N    2.313737   1.266869   2.183182   2.295921   1.477610
    22  H    4.332474   3.115705   3.244294   2.228579   1.115393
    23  H    4.148564   2.917683   2.932053   2.219782   1.115627
    24  H    4.013996   2.845944   2.086975   1.115883   2.190850
    25  H    4.438472   3.180684   2.111421   1.115348   2.221821
    26  H    2.654796   2.030377   1.019111   2.099823   3.246013
    27  C    1.350573   2.353222   3.649653   4.600733   4.235114
    28  C    2.358462   3.591666   4.780179   5.856282   5.575886
    29  H    3.359968   4.486207   5.755157   6.729538   6.266779
    30  H    2.140547   2.630787   4.015165   4.669124   3.952507
    31  H    2.147401   2.624252   2.517533   3.928132   4.689424
    32  H    4.768334   6.108883   7.056853   8.294400   8.264306
    33  H    6.510195   7.811200   8.406342   9.786426  10.098623
    34  N    7.961825   8.826616   8.649657   9.972985  10.917490
    35  C    8.931950   9.652096   9.283637  10.528847  11.609389
    36  H    9.724649  10.464893  10.108298  11.374066  12.429021
    37  H    9.450152  10.155173   9.769824  10.964588  12.087355
    38  H    6.127803   6.652776   6.157677   7.398212   8.491201
    39  H    8.610637   9.040325   8.379579   9.452945  10.714075
    40  H    8.365289   8.882272   8.324656   9.511895  10.644932
                   21         22         23         24         25
    21  N    0.000000
    22  H    2.135576   0.000000
    23  H    2.111161   1.843361   0.000000
    24  H    2.874354   2.404989   3.092770   0.000000
    25  H    3.222355   2.899291   2.452436   1.818161   0.000000
    26  H    3.022282   4.014205   3.919115   2.321141   2.654180
    27  C    2.769028   4.802061   4.721904   5.009868   5.526003
    28  C    4.112710   6.132210   6.038135   6.220494   6.758916
    29  H    4.789895   6.721092   6.684133   7.083162   7.658009
    30  H    2.505121   4.356610   4.382248   5.085328   5.620648
    31  H    3.890999   5.539641   5.222912   4.260597   4.477648
    32  H    6.837439   8.827503   8.768717   8.540312   9.151972
    33  H    8.797052  10.795303  10.582713  10.019828  10.481154
    34  N   10.079709  11.735109  11.404776  10.097020  10.291523
    35  C   10.918439  12.435827  12.078386  10.619958  10.722530
    36  H   11.729286  13.297858  12.833030  11.532050  11.523621
    37  H   11.413883  12.849638  12.633556  10.947124  11.191390
    38  H    7.911556   9.372701   8.899554   7.605873   7.539154
    39  H   10.282872  11.518550  11.177969   9.481154   9.484042
    40  H   10.128814  11.560971  10.963586   9.746643   9.511735
                   26         27         28         29         30
    26  H    0.000000
    27  C    3.968947   0.000000
    28  C    4.929530   1.343987   0.000000
    29  H    5.969146   2.133872   1.103427   0.000000
    30  H    4.522561   1.103283   2.087295   2.409369   0.000000
    31  H    2.016160   3.336904   3.807615   4.910976   4.272569
    32  H    6.898678   4.116072   2.820070   2.761034   4.868344
    33  H    8.007166   6.305705   5.178362   5.402028   7.248326
    34  N    7.891149   8.567210   8.045014   8.800542   9.670158
    35  C    8.471864   9.676993   9.281897  10.101901  10.775028
    36  H    9.342380  10.436654   9.994160  10.779880  11.536176
    37  H    8.897176  10.193107   9.798279  10.607595  11.283987
    38  H    5.400391   7.091295   7.025680   8.012072   8.143549
    39  H    7.510214   9.600830   9.512495  10.474824  10.649502
    40  H    7.595445   9.283807   9.117178  10.042996  10.343295
                   31         32         33         34         35
    31  H    0.000000
    32  H    5.247154   0.000000
    33  H    6.071550   2.758430   0.000000
    34  N    6.239328   6.839612   4.795087   0.000000
    35  C    7.028399   8.267158   6.271340   1.477318   0.000000
    36  H    7.847399   8.874030   6.701467   2.132988   1.115310
    37  H    7.554733   8.709284   6.715376   2.110489   1.115389
    38  H    4.070269   6.955330   5.961675   3.021464   3.242142
    39  H    6.508409   9.125767   7.655206   3.213614   2.220405
    40  H    6.336086   8.682735   7.098829   2.902028   2.192040
                   36         37         38         39         40
    36  H    0.000000
    37  H    1.843371   0.000000
    38  H    3.988800   3.938695   0.000000
    39  H    2.911764   2.441476   2.663437   0.000000
    40  H    2.398939   3.085017   2.309953   1.818787   0.000000
 Stoichiometry    C18H17N5
 Framework group  C1[X(C18H17N5)]
 Deg. of freedom   114
 Full point group                 C1      NOp   1
 Largest Abelian subgroup         C1      NOp   1
 Largest concise Abelian subgroup C1      NOp   1
                         Standard orientation:                         
 ---------------------------------------------------------------------
 Center     Atomic      Atomic             Coordinates (Angstroms)
 Number     Number       Type             X           Y           Z
 ---------------------------------------------------------------------
      1          6           0        4.680739   -2.800630   -0.265071
      2          7           0        3.470921   -2.078389    0.037538
      3          6           0        3.783863   -0.729816    0.073643
      4          6           0        2.879523    0.270143    0.048116
      5          6           0        3.260270    1.565777    0.076253
      6          1           0        4.326711    1.845845    0.122791
      7          6           0        2.369603    2.572313    0.048216
      8          6           0        1.066293    2.276535   -0.016971
      9          7           0        0.000196    3.143616   -0.063214
     10          6           0       -1.066325    2.276147   -0.047855
     11          6           0       -0.671344    0.992845   -0.050112
     12          6           0        0.672346    0.993144   -0.030310
     13          6           0        1.560027   -0.009183    0.000456
     14          1           0        1.181307   -1.043774   -0.004326
     15          6           0       -1.558580   -0.010301   -0.048500
     16          6           0       -2.878716    0.268590   -0.040424
     17          6           0       -3.785051   -0.729780   -0.050058
     18          7           0       -3.474957   -2.079112   -0.060821
     19          6           0       -4.677806   -2.803502    0.263178
     20          6           0       -5.804381   -1.821477   -0.069317
     21          7           0       -5.040085   -0.557156   -0.043309
     22          1           0       -6.617337   -1.793901    0.693863
     23          1           0       -6.215012   -1.959052   -1.097460
     24          1           0       -4.670212   -3.042063    1.353236
     25          1           0       -4.735465   -3.753229   -0.318798
     26          1           0       -2.644370   -2.324905    0.476113
     27          6           0       -3.260284    1.564028   -0.023282
     28          6           0       -2.370927    2.571672   -0.022924
     29          1           0       -2.703138    3.623857   -0.013259
     30          1           0       -4.327340    1.844244   -0.013149
     31          1           0       -1.179766   -1.044695   -0.053884
     32          1           0       -0.006965    4.049298    0.402630
     33          1           0        2.698257    3.625363    0.069476
     34          7           0        5.038366   -0.559681    0.115863
     35          6           0        5.803886   -1.822963    0.092061
     36          1           0        6.609652   -1.764775   -0.676882
     37          1           0        6.223964   -1.994322    1.111013
     38          1           0        2.660121   -2.305270   -0.536911
     39          1           0        4.727291   -3.751920    0.316266
     40          1           0        4.692407   -3.036888   -1.355709
 ---------------------------------------------------------------------
 Rotational constants (GHZ):           0.4810921           0.1348591           0.1057965
 Leave Link  202 at Wed Apr  2 18:58:21 2025, MaxMem=  1048576000 cpu:               0.3 elap:               0.2
 (Enter /opt/rit/el9/20230413/app/linux-rhel9-x86_64_v3/gcc-11.2.1/gaussian-16-C.01-3yzt2xlc3n3d45c3wnnzh2wvb3eacy2v/g16/l301.exe)
 Standard basis: 6-31G (6D, 7F)
 Ernie: Thresh=  0.10000D-02 Tol=  0.10000D-05 Strict=F.
 There are   241 symmetry adapted cartesian basis functions of A   symmetry.
 There are   241 symmetry adapted basis functions of A   symmetry.
   241 basis functions,   574 primitive gaussians,   241 cartesian basis functions
    80 alpha electrons       80 beta electrons
       nuclear repulsion energy      1787.0957145935 Hartrees.
 IExCor=  402 DFT=T Ex+Corr=B3LYP ExCW=0 ScaHFX=  0.200000
 ScaDFX=  0.800000  0.720000  1.000000  0.810000 ScalE2=  1.000000  1.000000
 IRadAn=      5 IRanWt=     -1 IRanGd=            0 ICorTp=0 IEmpDi=  4
 NAtoms=   40 NActive=   40 NUniq=   40 SFac= 1.00D+00 NAtFMM=   60 NAOKFM=F Big=F
 Integral buffers will be    131072 words long.
 Raffenetti 2 integral format.
 Two-electron integral symmetry is turned on.
 ------------------------------------------------------------------------------
 Polarizable Continuum Model (PCM)
 =================================
 Model                : PCM.
 Atomic radii         : UFF (Universal Force Field).
 Polarization charges : Total charges.
 Charge compensation  : None.
 Solution method      : On-the-fly selection.
 Cavity type          : Scaled VdW (van der Waals Surface) (Alpha=1.100).
 Cavity algorithm     : GePol (No added spheres)
                        Default sphere list used, NSphG=   40.
                        Lebedev-Laikov grids with approx.  5.0 points / Ang**2.
                        Smoothing algorithm: York/Karplus (Gamma=1.0000).
                        Polarization charges: spherical gaussians, with
                                              point-specific exponents (IZeta= 3).
                        Self-potential: point-specific (ISelfS= 7).
                        Self-field    : sphere-specific E.n sum rule (ISelfD= 2).
 1st derivatives      : Analytical E(r).r(x)/FMM algorithm (CHGder, D1EAlg=3).
                        Cavity 1st derivative terms included.
 Solvent              : Water, Eps=  78.355300 Eps(inf)=   1.777849
 ------------------------------------------------------------------------------
 GePol: Number of generator spheres                  =      40
 GePol: Total number of spheres                      =      40
 GePol: Number of exposed spheres                    =      40 (100.00%)
 GePol: Number of points                             =    2928
 GePol: Average weight of points                     =       0.13
 GePol: Minimum weight of points                     =   0.33D-11
 GePol: Maximum weight of points                     =    0.20577
 GePol: Number of points with low weight             =     221
 GePol: Fraction of low-weight points (<1% of avg)   =       7.55%
 GePol: Cavity surface area                          =    369.273 Ang**2
 GePol: Cavity volume                                =    402.644 Ang**3
 Leave Link  301 at Wed Apr  2 18:58:21 2025, MaxMem=  1048576000 cpu:               0.5 elap:               0.3
 (Enter /opt/rit/el9/20230413/app/linux-rhel9-x86_64_v3/gcc-11.2.1/gaussian-16-C.01-3yzt2xlc3n3d45c3wnnzh2wvb3eacy2v/g16/l302.exe)
 NPDir=0 NMtPBC=     1 NCelOv=     1 NCel=       1 NClECP=     1 NCelD=      1
         NCelK=      1 NCelE2=     1 NClLst=     1 CellRange=     0.0.
 One-electron integrals computed using PRISM.
 One-electron integral symmetry used in STVInt
 NBasis=   241 RedAO= T EigKep=  2.37D-04  NBF=   241
 NBsUse=   241 1.00D-06 EigRej= -1.00D+00 NBFU=   241
 Precomputing XC quadrature grid using
 IXCGrd= 4 IRadAn=           5 IRanWt=          -1 IRanGd=           0 AccXCQ= 0.00D+00.
 Generated NRdTot=       0 NPtTot=           0 NUsed=           0 NTot=          32
 NSgBfM=   237   237   237   237   237 MxSgAt=    40 MxSgA2=    40.
 Leave Link  302 at Wed Apr  2 18:58:24 2025, MaxMem=  1048576000 cpu:               5.8 elap:               2.9
 (Enter /opt/rit/el9/20230413/app/linux-rhel9-x86_64_v3/gcc-11.2.1/gaussian-16-C.01-3yzt2xlc3n3d45c3wnnzh2wvb3eacy2v/g16/l303.exe)
 DipDrv:  MaxL=1.
 Leave Link  303 at Wed Apr  2 18:58:24 2025, MaxMem=  1048576000 cpu:               0.6 elap:               0.3
 (Enter /opt/rit/el9/20230413/app/linux-rhel9-x86_64_v3/gcc-11.2.1/gaussian-16-C.01-3yzt2xlc3n3d45c3wnnzh2wvb3eacy2v/g16/l401.exe)
 ExpMin= 1.61D-01 ExpMax= 4.17D+03 ExpMxC= 6.27D+02 IAcc=3 IRadAn=         5 AccDes= 0.00D+00
 Harris functional with IExCor=  402 and IRadAn=       5 diagonalized for initial guess.
 HarFok:  IExCor=  402 AccDes= 0.00D+00 IRadAn=         5 IDoV= 1 UseB2=F ITyADJ=14
 ICtDFT=  3500011 ScaDFX=  1.000000  1.000000  1.000000  1.000000
 FoFCou: FMM=F IPFlag=           0 FMFlag=      100000 FMFlg1=           0
         NFxFlg=           0 DoJE=T BraDBF=F KetDBF=T FulRan=T
         wScrn=  0.000000 ICntrl=       500 IOpCl=  0 I1Cent=   200000004 NGrid=           0
         NMat0=    1 NMatS0=      1 NMatT0=    0 NMatD0=    1 NMtDS0=    0 NMtDT0=    0
 Petite list used in FoFCou.
 Harris En= -969.508735319248    
 JPrj=0 DoOrth=F DoCkMO=F.
 Leave Link  401 at Wed Apr  2 18:58:33 2025, MaxMem=  1048576000 cpu:              17.9 elap:               9.0
 (Enter /opt/rit/el9/20230413/app/linux-rhel9-x86_64_v3/gcc-11.2.1/gaussian-16-C.01-3yzt2xlc3n3d45c3wnnzh2wvb3eacy2v/g16/l502.exe)
 Integral symmetry usage will be decided dynamically.
 Closed shell SCF:
 Using DIIS extrapolation, IDIIS=  1040.
 NGot=  1048576000 LenX=  1048454276 LenY=  1048395754
 Requested convergence on RMS density matrix=1.00D-08 within 128 cycles.
 Requested convergence on MAX density matrix=1.00D-06.
 Requested convergence on             energy=1.00D-06.
 No special actions if energy rises.
 Fock matrices will be formed incrementally for  20 cycles.

 Cycle   1  Pass 1  IDiag  1:
 FoFJK:  IHMeth= 1 ICntrl=       0 DoSepK=F KAlg= 0 I1Cent=           0 FoldK=F
 IRaf= 710000000 NMat=       1 IRICut=       1 DoRegI=T DoRafI=F ISym2E= 0 IDoP0=0 IntGTp=1.
 FoFCou: FMM=F IPFlag=           0 FMFlag=      100000 FMFlg1=           0
         NFxFlg=           0 DoJE=F BraDBF=F KetDBF=F FulRan=T
         wScrn=  0.000000 ICntrl=         0 IOpCl=  0 I1Cent=           0 NGrid=           0
         NMat0=    1 NMatS0=      1 NMatT0=    0 NMatD0=    1 NMtDS0=    0 NMtDT0=    0
 Symmetry not used in FoFCou.
 Inv3:  Mode=1 IEnd=    25719552.
 Iteration    1 A*A^-1 deviation from unit magnitude is 4.88D-15 for    375.
 Iteration    1 A*A^-1 deviation from orthogonality  is 2.19D-15 for   2174   1004.
 Iteration    1 A^-1*A deviation from unit magnitude is 4.55D-15 for    375.
 Iteration    1 A^-1*A deviation from orthogonality  is 2.04D-15 for   2893    174.
 E= -969.109434615687    
 DIIS: error= 3.16D-02 at cycle   1 NSaved=   1.
 NSaved= 1 IEnMin= 1 EnMin= -969.109434615687     IErMin= 1 ErrMin= 3.16D-02
 ErrMax= 3.16D-02  0.00D+00 EMaxC= 1.00D-01 BMatC= 3.91D-01 BMatP= 3.91D-01
 IDIUse=3 WtCom= 6.84D-01 WtEn= 3.16D-01
 Coeff-Com:  0.100D+01
 Coeff-En:   0.100D+01
 Coeff:      0.100D+01
 Gap=     0.195 Goal=   None    Shift=    0.000
 GapD=    0.195 DampG=1.000 DampE=0.500 DampFc=0.5000 IDamp=-1.
 Damping current iteration by 5.00D-01
 RMSDP=9.27D-03 MaxDP=1.42D-01              OVMax= 1.66D-01

 Cycle   2  Pass 1  IDiag  1:
 RMSU=  4.53D-03    CP:  9.68D-01
 E= -969.319058574190     Delta-E=       -0.209623958503 Rises=F Damp=T
 DIIS: error= 6.40D-03 at cycle   2 NSaved=   2.
 NSaved= 2 IEnMin= 2 EnMin= -969.319058574190     IErMin= 2 ErrMin= 6.40D-03
 ErrMax= 6.40D-03  0.00D+00 EMaxC= 1.00D-01 BMatC= 2.08D-02 BMatP= 3.91D-01
 IDIUse=3 WtCom= 9.36D-01 WtEn= 6.40D-02
 Coeff-Com:  0.109D-01 0.989D+00
 Coeff-En:   0.000D+00 0.100D+01
 Coeff:      0.102D-01 0.990D+00
 Gap=     0.206 Goal=   None    Shift=    0.000
 RMSDP=3.02D-03 MaxDP=5.87D-02 DE=-2.10D-01 OVMax= 1.51D-01

 Cycle   3  Pass 1  IDiag  1:
 RMSU=  2.88D-03    CP:  9.40D-01  1.07D+00
 E= -969.521584088411     Delta-E=       -0.202525514221 Rises=F Damp=F
 DIIS: error= 9.91D-03 at cycle   3 NSaved=   3.
 NSaved= 3 IEnMin= 3 EnMin= -969.521584088411     IErMin= 2 ErrMin= 6.40D-03
 ErrMax= 9.91D-03  0.00D+00 EMaxC= 1.00D-01 BMatC= 2.93D-02 BMatP= 2.08D-02
 IDIUse=3 WtCom= 9.13D-02 WtEn= 9.09D-01
 Coeff-Com: -0.417D-01 0.571D+00 0.471D+00
 Coeff-En:   0.000D+00 0.000D+00 0.100D+01
 Coeff:     -0.381D-02 0.521D-01 0.952D+00
 Gap=     0.197 Goal=   None    Shift=    0.000
 RMSDP=2.93D-03 MaxDP=9.20D-02 DE=-2.03D-01 OVMax= 1.41D-01

 Cycle   4  Pass 1  IDiag  1:
 RMSU=  2.17D-03    CP:  9.48D-01  1.39D+00  5.52D-01
 E= -969.454383643970     Delta-E=        0.067200444440 Rises=F Damp=F
 DIIS: error= 2.02D-02 at cycle   4 NSaved=   4.
 NSaved= 4 IEnMin= 3 EnMin= -969.521584088411     IErMin= 2 ErrMin= 6.40D-03
 ErrMax= 2.02D-02  0.00D+00 EMaxC= 1.00D-01 BMatC= 9.95D-02 BMatP= 2.08D-02
 IDIUse=2 WtCom= 0.00D+00 WtEn= 1.00D+00
 Coeff-En:   0.000D+00 0.000D+00 0.725D+00 0.275D+00
 Coeff:      0.000D+00 0.000D+00 0.725D+00 0.275D+00
 Gap=     0.187 Goal=   None    Shift=    0.000
 RMSDP=1.62D-03 MaxDP=4.76D-02 DE= 6.72D-02 OVMax= 8.62D-02

 Cycle   5  Pass 1  IDiag  1:
 RMSU=  2.94D-04    CP:  9.44D-01  1.20D+00  7.74D-01  4.55D-01
 E= -969.544887367310     Delta-E=       -0.090503723340 Rises=F Damp=F
 DIIS: error= 4.19D-03 at cycle   5 NSaved=   5.
 NSaved= 5 IEnMin= 5 EnMin= -969.544887367310     IErMin= 5 ErrMin= 4.19D-03
 ErrMax= 4.19D-03  0.00D+00 EMaxC= 1.00D-01 BMatC= 4.86D-03 BMatP= 2.08D-02
 IDIUse=3 WtCom= 9.58D-01 WtEn= 4.19D-02
 Coeff-Com:  0.469D-02 0.674D-02 0.362D+00 0.768D-01 0.550D+00
 Coeff-En:   0.000D+00 0.000D+00 0.174D+00 0.000D+00 0.826D+00
 Coeff:      0.449D-02 0.645D-02 0.354D+00 0.735D-01 0.562D+00
 Gap=     0.180 Goal=   None    Shift=    0.000
 RMSDP=4.33D-04 MaxDP=1.22D-02 DE=-9.05D-02 OVMax= 2.32D-02

 Cycle   6  Pass 1  IDiag  1:
 RMSU=  1.18D-04    CP:  9.42D-01  1.16D+00  8.36D-01  3.11D-01  7.80D-01
 E= -969.549512117140     Delta-E=       -0.004624749829 Rises=F Damp=F
 DIIS: error= 4.15D-04 at cycle   6 NSaved=   6.
 NSaved= 6 IEnMin= 6 EnMin= -969.549512117140     IErMin= 6 ErrMin= 4.15D-04
 ErrMax= 4.15D-04  0.00D+00 EMaxC= 1.00D-01 BMatC= 3.12D-05 BMatP= 4.86D-03
 IDIUse=3 WtCom= 9.96D-01 WtEn= 4.15D-03
 Coeff-Com:  0.117D-02-0.368D-02 0.830D-01-0.459D-02 0.260D+00 0.664D+00
 Coeff-En:   0.000D+00 0.000D+00 0.000D+00 0.000D+00 0.000D+00 0.100D+01
 Coeff:      0.117D-02-0.366D-02 0.827D-01-0.457D-02 0.259D+00 0.665D+00
 Gap=     0.180 Goal=   None    Shift=    0.000
 RMSDP=4.22D-05 MaxDP=1.80D-03 DE=-4.62D-03 OVMax= 2.23D-03

 Cycle   7  Pass 1  IDiag  1:
 RMSU=  2.45D-05    CP:  9.42D-01  1.16D+00  8.36D-01  3.17D-01  8.06D-01
                    CP:  7.71D-01
 E= -969.549537650349     Delta-E=       -0.000025533209 Rises=F Damp=F
 DIIS: error= 1.55D-04 at cycle   7 NSaved=   7.
 NSaved= 7 IEnMin= 7 EnMin= -969.549537650349     IErMin= 7 ErrMin= 1.55D-04
 ErrMax= 1.55D-04  0.00D+00 EMaxC= 1.00D-01 BMatC= 5.24D-06 BMatP= 3.12D-05
 IDIUse=3 WtCom= 9.98D-01 WtEn= 1.55D-03
 Coeff-Com:  0.161D-03-0.165D-02 0.194D-01-0.105D-01 0.114D+00 0.411D+00
 Coeff-Com:  0.468D+00
 Coeff-En:   0.000D+00 0.000D+00 0.000D+00 0.000D+00 0.000D+00 0.897D-01
 Coeff-En:   0.910D+00
 Coeff:      0.160D-03-0.165D-02 0.194D-01-0.105D-01 0.114D+00 0.410D+00
 Coeff:      0.469D+00
 Gap=     0.179 Goal=   None    Shift=    0.000
 RMSDP=1.46D-05 MaxDP=3.58D-04 DE=-2.55D-05 OVMax= 4.84D-04

 Cycle   8  Pass 1  IDiag  1:
 RMSU=  6.66D-06    CP:  9.42D-01  1.16D+00  8.36D-01  3.19D-01  8.03D-01
                    CP:  7.83D-01  5.17D-01
 E= -969.549542894704     Delta-E=       -0.000005244355 Rises=F Damp=F
 DIIS: error= 1.80D-05 at cycle   8 NSaved=   8.
 NSaved= 8 IEnMin= 8 EnMin= -969.549542894704     IErMin= 8 ErrMin= 1.80D-05
 ErrMax= 1.80D-05  0.00D+00 EMaxC= 1.00D-01 BMatC= 7.66D-08 BMatP= 5.24D-06
 IDIUse=1 WtCom= 1.00D+00 WtEn= 0.00D+00
 Coeff-Com:  0.362D-04-0.558D-03 0.665D-02-0.488D-02 0.453D-01 0.171D+00
 Coeff-Com:  0.212D+00 0.570D+00
 Coeff:      0.362D-04-0.558D-03 0.665D-02-0.488D-02 0.453D-01 0.171D+00
 Coeff:      0.212D+00 0.570D+00
 Gap=     0.179 Goal=   None    Shift=    0.000
 RMSDP=2.24D-06 MaxDP=5.11D-05 DE=-5.24D-06 OVMax= 7.18D-05

 Cycle   9  Pass 1  IDiag  1:
 RMSU=  1.58D-06    CP:  9.42D-01  1.16D+00  8.36D-01  3.18D-01  8.06D-01
                    CP:  7.82D-01  5.37D-01  8.39D-01
 E= -969.549542960492     Delta-E=       -0.000000065788 Rises=F Damp=F
 DIIS: error= 5.68D-06 at cycle   9 NSaved=   9.
 NSaved= 9 IEnMin= 9 EnMin= -969.549542960492     IErMin= 9 ErrMin= 5.68D-06
 ErrMax= 5.68D-06  0.00D+00 EMaxC= 1.00D-01 BMatC= 1.02D-08 BMatP= 7.66D-08
 IDIUse=1 WtCom= 1.00D+00 WtEn= 0.00D+00
 Coeff-Com: -0.977D-05 0.385D-05-0.127D-03-0.519D-03 0.183D-02 0.108D-01
 Coeff-Com:  0.166D-01 0.272D+00 0.699D+00
 Coeff:     -0.977D-05 0.385D-05-0.127D-03-0.519D-03 0.183D-02 0.108D-01
 Coeff:      0.166D-01 0.272D+00 0.699D+00
 Gap=     0.179 Goal=   None    Shift=    0.000
 RMSDP=9.60D-07 MaxDP=1.73D-05 DE=-6.58D-08 OVMax= 3.54D-05

 Cycle  10  Pass 1  IDiag  1:
 RMSU=  6.18D-07    CP:  9.42D-01  1.16D+00  8.36D-01  3.18D-01  8.06D-01
                    CP:  7.86D-01  5.31D-01  8.48D-01  7.61D-01
 E= -969.549542971485     Delta-E=       -0.000000010993 Rises=F Damp=F
 DIIS: error= 1.75D-06 at cycle  10 NSaved=  10.
 NSaved=10 IEnMin=10 EnMin= -969.549542971485     IErMin=10 ErrMin= 1.75D-06
 ErrMax= 1.75D-06  0.00D+00 EMaxC= 1.00D-01 BMatC= 8.10D-10 BMatP= 1.02D-08
 IDIUse=1 WtCom= 1.00D+00 WtEn= 0.00D+00
 Coeff-Com: -0.753D-05 0.204D-04-0.363D-03-0.991D-04-0.771D-03-0.624D-04
 Coeff-Com:  0.124D-02 0.123D+00 0.372D+00 0.505D+00
 Coeff:     -0.753D-05 0.204D-04-0.363D-03-0.991D-04-0.771D-03-0.624D-04
 Coeff:      0.124D-02 0.123D+00 0.372D+00 0.505D+00
 Gap=     0.179 Goal=   None    Shift=    0.000
 RMSDP=2.39D-07 MaxDP=6.21D-06 DE=-1.10D-08 OVMax= 9.11D-06

 Cycle  11  Pass 1  IDiag  1:
 RMSU=  1.64D-07    CP:  9.42D-01  1.16D+00  8.36D-01  3.18D-01  8.06D-01
                    CP:  7.86D-01  5.34D-01  8.52D-01  8.16D-01  8.15D-01
 E= -969.549542972301     Delta-E=       -0.000000000816 Rises=F Damp=F
 DIIS: error= 4.39D-07 at cycle  11 NSaved=  11.
 NSaved=11 IEnMin=11 EnMin= -969.549542972301     IErMin=11 ErrMin= 4.39D-07
 ErrMax= 4.39D-07  0.00D+00 EMaxC= 1.00D-01 BMatC= 6.61D-11 BMatP= 8.10D-10
 IDIUse=1 WtCom= 1.00D+00 WtEn= 0.00D+00
 Coeff-Com: -0.161D-05 0.715D-05-0.149D-03 0.642D-04-0.743D-03-0.184D-02
 Coeff-Com: -0.265D-02 0.783D-02 0.487D-01 0.224D+00 0.724D+00
 Coeff:     -0.161D-05 0.715D-05-0.149D-03 0.642D-04-0.743D-03-0.184D-02
 Coeff:     -0.265D-02 0.783D-02 0.487D-01 0.224D+00 0.724D+00
 Gap=     0.179 Goal=   None    Shift=    0.000
 RMSDP=7.66D-08 MaxDP=1.95D-06 DE=-8.16D-10 OVMax= 2.46D-06

 Cycle  12  Pass 1  IDiag  1:
 RMSU=  3.54D-08    CP:  9.42D-01  1.16D+00  8.36D-01  3.18D-01  8.06D-01
                    CP:  7.86D-01  5.33D-01  8.57D-01  8.11D-01  8.24D-01
                    CP:  6.71D-01
 E= -969.549542972366     Delta-E=       -0.000000000065 Rises=F Damp=F
 DIIS: error= 1.37D-07 at cycle  12 NSaved=  12.
 NSaved=12 IEnMin=12 EnMin= -969.549542972366     IErMin=12 ErrMin= 1.37D-07
 ErrMax= 1.37D-07  0.00D+00 EMaxC= 1.00D-01 BMatC= 5.97D-12 BMatP= 6.61D-11
 IDIUse=1 WtCom= 1.00D+00 WtEn= 0.00D+00
 Coeff-Com: -0.691D-06 0.343D-05-0.704D-04 0.415D-04-0.390D-03-0.101D-02
 Coeff-Com: -0.156D-02-0.768D-03 0.106D-01 0.941D-01 0.374D+00 0.525D+00
 Coeff:     -0.691D-06 0.343D-05-0.704D-04 0.415D-04-0.390D-03-0.101D-02
 Coeff:     -0.156D-02-0.768D-03 0.106D-01 0.941D-01 0.374D+00 0.525D+00
 Gap=     0.179 Goal=   None    Shift=    0.000
 RMSDP=1.80D-08 MaxDP=4.16D-07 DE=-6.50D-11 OVMax= 6.75D-07

 Cycle  13  Pass 1  IDiag  1:
 RMSU=  1.13D-08    CP:  9.42D-01  1.16D+00  8.36D-01  3.18D-01  8.06D-01
                    CP:  7.86D-01  5.33D-01  8.57D-01  8.13D-01  8.25D-01
                    CP:  7.24D-01  8.20D-01
 E= -969.549542972368     Delta-E=       -0.000000000003 Rises=F Damp=F
 DIIS: error= 3.32D-08 at cycle  13 NSaved=  13.
 NSaved=13 IEnMin=13 EnMin= -969.549542972368     IErMin=13 ErrMin= 3.32D-08
 ErrMax= 3.32D-08  0.00D+00 EMaxC= 1.00D-01 BMatC= 4.95D-13 BMatP= 5.97D-12
 IDIUse=1 WtCom= 1.00D+00 WtEn= 0.00D+00
 Coeff-Com: -0.168D-06 0.663D-06-0.148D-04 0.114D-04-0.870D-04-0.205D-03
 Coeff-Com: -0.382D-03-0.115D-02-0.119D-02 0.121D-01 0.712D-01 0.213D+00
 Coeff-Com:  0.707D+00
 Coeff:     -0.168D-06 0.663D-06-0.148D-04 0.114D-04-0.870D-04-0.205D-03
 Coeff:     -0.382D-03-0.115D-02-0.119D-02 0.121D-01 0.712D-01 0.213D+00
 Coeff:      0.707D+00
 Gap=     0.179 Goal=   None    Shift=    0.000
 RMSDP=5.61D-09 MaxDP=1.71D-07 DE=-2.96D-12 OVMax= 2.41D-07

 Error on total polarization charges =  0.01111
 SCF Done:  E(RB3LYP) =  -969.549542972     A.U. after   13 cycles
            NFock= 13  Conv=0.56D-08     -V/T= 2.0018
 KE= 9.677631939949D+02 PE=-5.830203783561D+03 EE= 2.105795332000D+03
 Leave Link  502 at Wed Apr  2 19:01:59 2025, MaxMem=  1048576000 cpu:             408.5 elap:             205.6
 (Enter /opt/rit/el9/20230413/app/linux-rhel9-x86_64_v3/gcc-11.2.1/gaussian-16-C.01-3yzt2xlc3n3d45c3wnnzh2wvb3eacy2v/g16/l601.exe)
 Copying SCF densities to generalized density rwf, IOpCl= 0 IROHF=0.

 **********************************************************************

            Population analysis using the SCF Density.

 **********************************************************************

 Orbital symmetries:
       Occupied  (A) (A) (A) (A) (A) (A) (A) (A) (A) (A) (A) (A)
                 (A) (A) (A) (A) (A) (A) (A) (A) (A) (A) (A) (A)
                 (A) (A) (A) (A) (A) (A) (A) (A) (A) (A) (A) (A)
                 (A) (A) (A) (A) (A) (A) (A) (A) (A) (A) (A) (A)
                 (A) (A) (A) (A) (A) (A) (A) (A) (A) (A) (A) (A)
                 (A) (A) (A) (A) (A) (A) (A) (A) (A) (A) (A) (A)
                 (A) (A) (A) (A) (A) (A) (A) (A)
       Virtual   (A) (A) (A) (A) (A) (A) (A) (A) (A) (A) (A) (A)
                 (A) (A) (A) (A) (A) (A) (A) (A) (A) (A) (A) (A)
                 (A) (A) (A) (A) (A) (A) (A) (A) (A) (A) (A) (A)
                 (A) (A) (A) (A) (A) (A) (A) (A) (A) (A) (A) (A)
                 (A) (A) (A) (A) (A) (A) (A) (A) (A) (A) (A) (A)
                 (A) (A) (A) (A) (A) (A) (A) (A) (A) (A) (A) (A)
                 (A) (A) (A) (A) (A) (A) (A) (A) (A) (A) (A) (A)
                 (A) (A) (A) (A) (A) (A) (A) (A) (A) (A) (A) (A)
                 (A) (A) (A) (A) (A) (A) (A) (A) (A) (A) (A) (A)
                 (A) (A) (A) (A) (A) (A) (A) (A) (A) (A) (A) (A)
                 (A) (A) (A) (A) (A) (A) (A) (A) (A) (A) (A) (A)
                 (A) (A) (A) (A) (A) (A) (A) (A) (A) (A) (A) (A)
                 (A) (A) (A) (A) (A) (A) (A) (A) (A) (A) (A) (A)
                 (A) (A) (A) (A) (A)
 The electronic state is 1-A.
 Alpha  occ. eigenvalues --  -14.37088 -14.33480 -14.33468 -14.29311 -14.29300
 Alpha  occ. eigenvalues --  -10.23824 -10.23824 -10.21574 -10.21571 -10.21179
 Alpha  occ. eigenvalues --  -10.21169 -10.20836 -10.20826 -10.18632 -10.18626
 Alpha  occ. eigenvalues --  -10.18022 -10.18013 -10.17987 -10.17980 -10.17910
 Alpha  occ. eigenvalues --  -10.17893 -10.17234 -10.17165  -1.01870  -1.00588
 Alpha  occ. eigenvalues --   -1.00548  -0.89578  -0.89192  -0.85975  -0.85908
 Alpha  occ. eigenvalues --   -0.82397  -0.80800  -0.78752  -0.75096  -0.73502
 Alpha  occ. eigenvalues --   -0.73284  -0.68138  -0.64924  -0.63908  -0.62862
 Alpha  occ. eigenvalues --   -0.61466  -0.58684  -0.58598  -0.55544  -0.55368
 Alpha  occ. eigenvalues --   -0.54916  -0.53242  -0.51766  -0.49628  -0.48783
 Alpha  occ. eigenvalues --   -0.48570  -0.46626  -0.46071  -0.45559  -0.44556
 Alpha  occ. eigenvalues --   -0.44321  -0.42929  -0.42896  -0.41460  -0.40672
 Alpha  occ. eigenvalues --   -0.40492  -0.40096  -0.39650  -0.38725  -0.38384
 Alpha  occ. eigenvalues --   -0.38120  -0.37787  -0.37296  -0.35045  -0.34816
 Alpha  occ. eigenvalues --   -0.34245  -0.32676  -0.29845  -0.26390  -0.24056
 Alpha  occ. eigenvalues --   -0.23989  -0.23148  -0.22448  -0.20812  -0.20799
 Alpha virt. eigenvalues --   -0.02866  -0.02652  -0.01734   0.04287   0.07299
 Alpha virt. eigenvalues --    0.07842   0.08563   0.10607   0.10804   0.11359
 Alpha virt. eigenvalues --    0.11574   0.12205   0.12397   0.13287   0.14157
 Alpha virt. eigenvalues --    0.15652   0.15680   0.16365   0.17367   0.18061
 Alpha virt. eigenvalues --    0.18711   0.19409   0.19828   0.20201   0.20857
 Alpha virt. eigenvalues --    0.21320   0.21881   0.23601   0.24321   0.25846
 Alpha virt. eigenvalues --    0.27352   0.27683   0.28755   0.28948   0.30806
 Alpha virt. eigenvalues --    0.31078   0.33470   0.35802   0.36260   0.37060
 Alpha virt. eigenvalues --    0.39400   0.39989   0.42111   0.44125   0.44971
 Alpha virt. eigenvalues --    0.47799   0.48813   0.50447   0.51466   0.52460
 Alpha virt. eigenvalues --    0.54071   0.54743   0.55042   0.55327   0.55990
 Alpha virt. eigenvalues --    0.56922   0.57150   0.57596   0.58544   0.58669
 Alpha virt. eigenvalues --    0.59058   0.59514   0.60325   0.60645   0.61096
 Alpha virt. eigenvalues --    0.61401   0.61700   0.62357   0.62480   0.63984
 Alpha virt. eigenvalues --    0.64389   0.64920   0.65296   0.65693   0.65827
 Alpha virt. eigenvalues --    0.66978   0.67049   0.67223   0.68528   0.70755
 Alpha virt. eigenvalues --    0.71013   0.72846   0.73961   0.74044   0.74587
 Alpha virt. eigenvalues --    0.74983   0.76460   0.77308   0.78137   0.78888
 Alpha virt. eigenvalues --    0.80621   0.81759   0.81815   0.83138   0.83290
 Alpha virt. eigenvalues --    0.83877   0.84168   0.84478   0.84649   0.85253
 Alpha virt. eigenvalues --    0.85600   0.86517   0.86850   0.87152   0.88084
 Alpha virt. eigenvalues --    0.88459   0.89597   0.90800   0.91411   0.92173
 Alpha virt. eigenvalues --    0.92500   0.92954   0.95598   0.96018   0.96158
 Alpha virt. eigenvalues --    0.99120   1.00557   1.01705   1.04416   1.04833
 Alpha virt. eigenvalues --    1.05100   1.06624   1.06931   1.09574   1.09966
 Alpha virt. eigenvalues --    1.10728   1.11913   1.12385   1.14410   1.16999
 Alpha virt. eigenvalues --    1.19593   1.20640   1.23125   1.25700   1.26046
 Alpha virt. eigenvalues --    1.27485   1.32212   1.33581   1.34345   1.35532
 Alpha virt. eigenvalues --    1.38957   1.39444   1.40185   1.43918   1.48212
 Alpha virt. eigenvalues --    1.53513   1.54038   1.55742   1.60090   1.60386
 Alpha virt. eigenvalues --    1.60918   1.63487   1.66178   1.68264   1.76222
 Alpha virt. eigenvalues --    1.77826   1.87064   2.00635   2.03134   2.04144
 Alpha virt. eigenvalues --    2.06312
          Condensed to atoms (all electrons):
               1          2          3          4          5          6
     1  C    5.105834   0.255579  -0.058527   0.004739   0.000261   0.000076
     2  N    0.255579   7.446868   0.190279  -0.142549   0.016235   0.000699
     3  C   -0.058527   0.190279   5.440098  -0.217167   0.036471  -0.003916
     4  C    0.004739  -0.142549  -0.217167   5.551750   0.430911  -0.050684
     5  C    0.000261   0.016235   0.036471   0.430911   5.125278   0.352312
     6  H    0.000076   0.000699  -0.003916  -0.050684   0.352312   0.565658
     7  C    0.000010  -0.000163   0.019342  -0.034790   0.452835  -0.034163
     8  C    0.000000  -0.000039   0.004478  -0.029032  -0.053478   0.005593
     9  N    0.000000  -0.000000  -0.000010  -0.000312   0.007632  -0.000154
    10  C   -0.000000  -0.000000   0.000014  -0.001602  -0.000732   0.000013
    11  C    0.000000  -0.000021  -0.001331   0.018020   0.005103  -0.000039
    12  C   -0.000012   0.002059   0.014019   0.048490  -0.023910   0.000718
    13  C    0.000138  -0.017330  -0.055045   0.389304  -0.159862   0.005821
    14  H    0.000217   0.003276  -0.009765  -0.046161   0.002865  -0.000176
    15  C   -0.000000   0.000006   0.000035   0.000625   0.000048  -0.000000
    16  C    0.000000   0.000000  -0.000000   0.000005   0.000001   0.000000
    17  C   -0.000000  -0.000000   0.000000  -0.000000   0.000000  -0.000000
    18  N    0.000000   0.000000  -0.000000   0.000000  -0.000000   0.000000
    19  C   -0.000000  -0.000000  -0.000000   0.000000  -0.000000  -0.000000
    20  C    0.000000  -0.000000   0.000000  -0.000000   0.000000  -0.000000
    21  N   -0.000000  -0.000000   0.000000  -0.000000  -0.000000  -0.000000
    22  H    0.000000   0.000000  -0.000000   0.000000   0.000000   0.000000
    23  H   -0.000000  -0.000000  -0.000000   0.000000  -0.000000  -0.000000
    24  H    0.000000  -0.000000  -0.000000   0.000000  -0.000000  -0.000000
    25  H   -0.000000  -0.000000   0.000000  -0.000000   0.000000  -0.000000
    26  H    0.000000   0.000000   0.000000  -0.000000   0.000000   0.000000
    27  C   -0.000000  -0.000000   0.000000   0.000001  -0.000000   0.000000
    28  C   -0.000000   0.000000   0.000000  -0.000008   0.000010   0.000000
    29  H   -0.000000  -0.000000   0.000000  -0.000000  -0.000000  -0.000000
    30  H   -0.000000   0.000000  -0.000000   0.000000   0.000000  -0.000000
    31  H   -0.000000  -0.000016   0.000014  -0.000027  -0.000001  -0.000000
    32  H    0.000000   0.000000   0.000000   0.000021  -0.000052  -0.000003
    33  H   -0.000000   0.000001  -0.000380   0.002847  -0.021186  -0.005077
    34  N   -0.091878  -0.247016   0.581268  -0.081778  -0.001692   0.016864
    35  C    0.275251  -0.090345  -0.101677   0.022068  -0.000937  -0.000343
    36  H   -0.037540   0.005058   0.000470  -0.000220  -0.000015  -0.000018
    37  H   -0.033576   0.002730   0.000084  -0.000946   0.000028   0.000001
    38  H   -0.035966   0.297135  -0.020235  -0.008165  -0.000705  -0.000034
    39  H    0.367834  -0.045006   0.003557  -0.000094  -0.000003  -0.000001
    40  H    0.382513  -0.070276   0.005638  -0.000820  -0.000021  -0.000003
               7          8          9         10         11         12
     1  C    0.000010   0.000000   0.000000  -0.000000   0.000000  -0.000012
     2  N   -0.000163  -0.000039  -0.000000  -0.000000  -0.000021   0.002059
     3  C    0.019342   0.004478  -0.000010   0.000014  -0.001331   0.014019
     4  C   -0.034790  -0.029032  -0.000312  -0.001602   0.018020   0.048490
     5  C    0.452835  -0.053478   0.007632  -0.000732   0.005103  -0.023910
     6  H   -0.034163   0.005593  -0.000154   0.000013  -0.000039   0.000718
     7  C    5.157946   0.427205  -0.077297   0.004835   0.030386  -0.047396
     8  C    0.427205   5.107814   0.168631  -0.151049   0.090517   0.373158
     9  N   -0.077297   0.168631   7.400364   0.167822  -0.106013  -0.105866
    10  C    0.004835  -0.151049   0.167822   5.108047   0.374070   0.090067
    11  C    0.030386   0.090517  -0.106013   0.374070   5.495640  -0.094541
    12  C   -0.047396   0.373158  -0.105866   0.090067  -0.094541   5.498031
    13  C   -0.081130  -0.155480   0.015918   0.030958  -0.087406   0.332774
    14  H    0.000666   0.005909  -0.000222   0.000293  -0.010614  -0.022979
    15  C   -0.000825   0.031039   0.015843  -0.155767   0.334007  -0.087048
    16  C   -0.000008  -0.001613  -0.000299  -0.028748   0.049488   0.017973
    17  C    0.000000   0.000013  -0.000010   0.004510   0.013999  -0.001334
    18  N    0.000000  -0.000000  -0.000000  -0.000041   0.002101  -0.000020
    19  C    0.000000   0.000000  -0.000000  -0.000000  -0.000006   0.000000
    20  C   -0.000000   0.000000   0.000000   0.000001   0.000004  -0.000000
    21  N    0.000000   0.000000   0.000000   0.000003  -0.000461   0.000002
    22  H   -0.000000  -0.000000   0.000000   0.000000  -0.000000   0.000000
    23  H    0.000000   0.000000  -0.000000  -0.000000  -0.000000  -0.000000
    24  H    0.000000   0.000000   0.000000   0.000000  -0.000001  -0.000000
    25  H   -0.000000   0.000000  -0.000000  -0.000000  -0.000000   0.000000
    26  H   -0.000000  -0.000000   0.000000  -0.000005  -0.000239   0.000014
    27  C    0.000010  -0.000729   0.007615  -0.053369  -0.023662   0.005123
    28  C   -0.000820   0.004803  -0.077293   0.426989  -0.047761   0.030375
    29  H    0.000022   0.000855  -0.005948  -0.024049   0.004808  -0.001030
    30  H    0.000000   0.000014  -0.000156   0.005632   0.000731  -0.000039
[...]
    11  C   -0.045931  -0.005214   0.424505  -0.003480   0.007058   0.000995
    12  C    0.424505  -0.023225  -0.045934   0.007061  -0.000236  -0.000001
    13  C    5.241054   0.341753  -0.013236   0.000169   0.000003   0.000001
    14  H    0.341753   0.555247   0.002036  -0.000021   0.000001  -0.000002
    15  C   -0.013236   0.002036   5.241107   0.456110  -0.047556  -0.010162
    16  C    0.000169  -0.000021   0.456110   5.132192   0.164493  -0.098498
    17  C    0.000003   0.000001  -0.047556   0.164493   5.000913   0.182775
    18  N    0.000001  -0.000002  -0.010162  -0.098498   0.182775   7.369631
    19  C    0.000000  -0.000000   0.000233   0.003194  -0.067252   0.249167
    20  C   -0.000000   0.000000  -0.000140   0.016400  -0.084257  -0.085521
    21  N   -0.000000  -0.000000   0.003351  -0.078967   0.542477  -0.173910
    22  H    0.000000   0.000000   0.000001  -0.000245   0.000703   0.004922
    23  H    0.000000  -0.000000   0.000019  -0.000547  -0.000179   0.003486
    24  H    0.000000  -0.000000   0.000035  -0.000366   0.003834  -0.055532
    25  H   -0.000000   0.000000  -0.000020  -0.000057   0.003019  -0.042934
    26  H   -0.000002   0.000000   0.003682  -0.002644  -0.012527   0.301882
    27  C    0.000022   0.000000  -0.092371   0.465359  -0.002249   0.007942
    28  C   -0.000265   0.000005  -0.048338  -0.043517   0.009488  -0.000109
    29  H    0.000000   0.000000   0.001024   0.002850  -0.000189   0.000000
    30  H   -0.000000  -0.000000   0.004383  -0.045727  -0.002963   0.000542
    31  H    0.002037   0.001742   0.341754  -0.040832  -0.007648   0.005128
    32  H   -0.000092   0.000002  -0.000092   0.000005   0.000000   0.000000
    33  H    0.001024   0.000016   0.000000  -0.000000   0.000000  -0.000000
    34  N    0.003348   0.000117  -0.000000  -0.000000  -0.000000   0.000000
    35  C   -0.000140   0.000024  -0.000000  -0.000000   0.000000  -0.000000
    36  H    0.000001  -0.000001   0.000000   0.000000  -0.000000   0.000000
    37  H    0.000019   0.000002   0.000000   0.000000   0.000000  -0.000000
    38  H    0.003683   0.001834  -0.000002   0.000000  -0.000000   0.000000
    39  H   -0.000020  -0.000026  -0.000000  -0.000000   0.000000  -0.000000
    40  H    0.000035   0.000023   0.000000   0.000000  -0.000000  -0.000000
              19         20         21         22         23         24
     1  C    0.000000  -0.000000  -0.000000  -0.000000   0.000000   0.000000
     2  N    0.000000  -0.000000   0.000000   0.000000  -0.000000  -0.000000
     3  C   -0.000000   0.000000  -0.000000  -0.000000   0.000000  -0.000000
     4  C    0.000000  -0.000000  -0.000000   0.000000   0.000000   0.000000
     5  C   -0.000000   0.000000   0.000000   0.000000  -0.000000  -0.000000
     6  H   -0.000000  -0.000000   0.000000   0.000000  -0.000000  -0.000000
     7  C    0.000000  -0.000000   0.000000  -0.000000   0.000000   0.000000
     8  C    0.000000   0.000000   0.000000  -0.000000   0.000000   0.000000
     9  N   -0.000000  -0.000000   0.000000  -0.000000   0.000000   0.000000
    10  C    0.000000   0.000001  -0.000003  -0.000000  -0.000000   0.000000
    11  C    0.000002   0.000001  -0.000161  -0.000000   0.000000   0.000000
    12  C   -0.000000  -0.000000   0.000000   0.000000  -0.000000  -0.000000
    13  C    0.000000  -0.000000  -0.000000   0.000000   0.000000   0.000000
    14  H   -0.000000   0.000000  -0.000000   0.000000  -0.000000  -0.000000
    15  C    0.000233  -0.000140   0.003351   0.000001   0.000019   0.000035
    16  C    0.003194   0.016400  -0.078967  -0.000245  -0.000547  -0.000366
    17  C   -0.067252  -0.084257   0.542477   0.000703  -0.000179   0.003834
    18  N    0.249167  -0.085521  -0.173910   0.004922   0.003486  -0.055532
    19  C    5.033827   0.292162  -0.066820  -0.036067  -0.035902   0.377763
    20  C    0.292162   5.069274   0.282998   0.373321   0.367104  -0.030099
    21  N   -0.066820   0.282998   7.013105  -0.039513  -0.043776   0.004307
    22  H   -0.036067   0.373321  -0.039513   0.590438  -0.043587  -0.008511
    23  H   -0.035902   0.367104  -0.043776  -0.043587   0.599319   0.004741
    24  H    0.377763  -0.030099   0.004307  -0.008511   0.004741   0.591866
    25  H    0.373639  -0.028988   0.003863   0.003595  -0.007881  -0.043509
    26  H   -0.025629   0.005021   0.005271  -0.000014  -0.000259  -0.002689
    27  C    0.000074  -0.000524   0.001049  -0.000005   0.000028   0.000003
    28  C    0.000005  -0.000009   0.000891  -0.000000   0.000000  -0.000000
    29  H   -0.000000  -0.000000  -0.000003   0.000000  -0.000000   0.000000
    30  H    0.000058  -0.000254   0.013919  -0.000028   0.000010  -0.000001
    31  H    0.000063   0.000024   0.000117  -0.000001   0.000002   0.000023
    32  H    0.000000  -0.000000   0.000000   0.000000  -0.000000  -0.000000
    33  H    0.000000   0.000000  -0.000000  -0.000000  -0.000000   0.000000
    34  N   -0.000000  -0.000000  -0.000000   0.000000   0.000000  -0.000000
    35  C   -0.000000   0.000000  -0.000000   0.000000   0.000000  -0.000000
    36  H   -0.000000   0.000000   0.000000   0.000000   0.000000  -0.000000
    37  H    0.000000   0.000000   0.000000   0.000000   0.000000   0.000000
    38  H    0.000000   0.000000  -0.000000  -0.000000   0.000000   0.000000
    39  H   -0.000000   0.000000   0.000000   0.000000  -0.000000   0.000000
    40  H    0.000000  -0.000000  -0.000000  -0.000000   0.000000  -0.000000
              25         26         27         28         29         30
     1  C   -0.000000   0.000000  -0.000000   0.000000   0.000000  -0.000000
     2  N   -0.000000   0.000000  -0.000000   0.000000  -0.000000  -0.000000
     3  C    0.000000  -0.000000  -0.000000  -0.000000   0.000000  -0.000000
     4  C   -0.000000   0.000000   0.000000  -0.000002  -0.000000   0.000000
     5  C    0.000000   0.000000   0.000000   0.000001  -0.000000   0.000000
     6  H    0.000000   0.000000   0.000000   0.000000  -0.000000  -0.000000
     7  C   -0.000000  -0.000000   0.000001  -0.000217   0.000009   0.000000
     8  C    0.000000   0.000000  -0.000423   0.004725   0.000355   0.000005
     9  N    0.000000  -0.000000   0.005997  -0.066247  -0.005363  -0.000103
    10  C   -0.000000  -0.000001  -0.032351   0.469623  -0.030457   0.003458
    11  C   -0.000001  -0.000220  -0.025760  -0.040213   0.003491   0.000752
    12  C    0.000000  -0.000001   0.001705   0.010106  -0.000428  -0.000005
    13  C   -0.000000  -0.000002   0.000022  -0.000265   0.000000  -0.000000
    14  H    0.000000   0.000000   0.000000   0.000005   0.000000  -0.000000
    15  C   -0.000020   0.003682  -0.092371  -0.048338   0.001024   0.004383
    16  C   -0.000057  -0.002644   0.465359  -0.043517   0.002850  -0.045727
    17  C    0.003019  -0.012527  -0.002249   0.009488  -0.000189  -0.002963
    18  N   -0.042934   0.301882   0.007942  -0.000109   0.000000   0.000542
    19  C    0.373639  -0.025629   0.000074   0.000005  -0.000000   0.000058
    20  C   -0.028988   0.005021  -0.000524  -0.000009  -0.000000  -0.000254
    21  N    0.003863   0.005271   0.001049   0.000891  -0.000003   0.013919
    22  H    0.003595  -0.000014  -0.000005  -0.000000   0.000000  -0.000028
    23  H   -0.007881  -0.000259   0.000028   0.000000  -0.000000   0.000010
    24  H   -0.043509  -0.002689   0.000003  -0.000000   0.000000  -0.000001
    25  H    0.578309   0.001596  -0.000002  -0.000000   0.000000  -0.000001
    26  H    0.001596   0.396747  -0.000356  -0.000002   0.000000  -0.000030
    27  C   -0.000002  -0.000356   5.056816   0.461428  -0.025935   0.355481
    28  C   -0.000000  -0.000002   0.461428   5.043111   0.348302  -0.030698
    29  H    0.000000   0.000000  -0.025935   0.348302   0.548375  -0.003446
    30  H   -0.000001  -0.000030   0.355481  -0.030698  -0.003446   0.552507
    31  H   -0.000026   0.001841   0.003533   0.000524   0.000016  -0.000152
    32  H    0.000000   0.000000   0.000021  -0.001824   0.001644  -0.000002
    33  H   -0.000000  -0.000000  -0.000000   0.000009   0.000000  -0.000000
    34  N    0.000000  -0.000000   0.000000   0.000000  -0.000000   0.000000
    35  C    0.000000   0.000000   0.000000  -0.000000   0.000000  -0.000000
    36  H    0.000000  -0.000000   0.000000  -0.000000  -0.000000   0.000000
    37  H   -0.000000   0.000000  -0.000000   0.000000  -0.000000  -0.000000
    38  H   -0.000000  -0.000000   0.000000  -0.000000  -0.000000   0.000000
    39  H   -0.000000  -0.000000   0.000000  -0.000000  -0.000000   0.000000
    40  H    0.000000   0.000000  -0.000000   0.000000   0.000000  -0.000000
              31         32         33         34         35         36
     1  C   -0.000000   0.000000  -0.000000  -0.066819   0.292165  -0.036067
     2  N   -0.000002   0.000000   0.000000  -0.173893  -0.085518   0.004922
     3  C    0.000001   0.000000  -0.000189   0.542462  -0.084255   0.000703
     4  C   -0.000021   0.000005   0.002851  -0.078969   0.016397  -0.000245
     5  C    0.000000   0.000021  -0.025936   0.001052  -0.000523  -0.000005
     6  H   -0.000000  -0.000002  -0.003446   0.013910  -0.000254  -0.000028
     7  C    0.000005  -0.001824   0.348302   0.000891  -0.000009  -0.000000
     8  C    0.000142  -0.018510  -0.030457  -0.000003   0.000001  -0.000000
     9  N   -0.000174   0.326163  -0.005363   0.000000  -0.000000  -0.000000
    10  C    0.004292  -0.018511   0.000355   0.000000   0.000000  -0.000000
    11  C   -0.023226   0.003631  -0.000428   0.000000  -0.000000   0.000000
    12  C   -0.005215   0.003631   0.003491  -0.000161   0.000001  -0.000000
    13  C    0.002037  -0.000092   0.001024   0.003348  -0.000140   0.000001
    14  H    0.001742   0.000002   0.000016   0.000117   0.000024  -0.000001
    15  C    0.341754  -0.000092   0.000000  -0.000000  -0.000000   0.000000
    16  C   -0.040832   0.000005  -0.000000  -0.000000  -0.000000   0.000000
    17  C   -0.007648   0.000000   0.000000  -0.000000   0.000000  -0.000000
    18  N    0.005128   0.000000  -0.000000   0.000000  -0.000000   0.000000
    19  C    0.000063   0.000000   0.000000  -0.000000  -0.000000  -0.000000
    20  C    0.000024  -0.000000   0.000000  -0.000000   0.000000   0.000000
    21  N    0.000117   0.000000  -0.000000  -0.000000  -0.000000   0.000000
    22  H   -0.000001   0.000000  -0.000000   0.000000   0.000000   0.000000
    23  H    0.000002  -0.000000  -0.000000   0.000000   0.000000   0.000000
    24  H    0.000023  -0.000000   0.000000  -0.000000  -0.000000  -0.000000
    25  H   -0.000026   0.000000  -0.000000   0.000000   0.000000   0.000000
    26  H    0.001841   0.000000  -0.000000  -0.000000   0.000000  -0.000000
    27  C    0.003533   0.000021  -0.000000   0.000000   0.000000   0.000000
    28  C    0.000524  -0.001824   0.000009   0.000000  -0.000000  -0.000000
    29  H    0.000016   0.001644   0.000000  -0.000000   0.000000  -0.000000
    30  H   -0.000152  -0.000002  -0.000000   0.000000  -0.000000   0.000000
    31  H    0.555260   0.000002   0.000000  -0.000000   0.000000   0.000000
    32  H    0.000002   0.352195   0.001644   0.000000  -0.000000   0.000000
    33  H    0.000000   0.001644   0.548375  -0.000003  -0.000000   0.000000
    34  N   -0.000000   0.000000  -0.000003   7.013098   0.283005  -0.039513
    35  C    0.000000  -0.000000  -0.000000   0.283005   5.069269   0.373319
    36  H    0.000000   0.000000   0.000000  -0.039513   0.373319   0.590440
    37  H   -0.000000  -0.000000  -0.000000  -0.043774   0.367105  -0.043587
    38  H    0.000000   0.000000   0.000000   0.005271   0.005021  -0.000014
    39  H    0.000000   0.000000   0.000000   0.003863  -0.028989   0.003595
    40  H   -0.000000  -0.000000   0.000000   0.004307  -0.030097  -0.008511
              37         38         39         40
     1  C   -0.035902  -0.025628   0.373639   0.377761
     2  N    0.003486   0.301886  -0.042934  -0.055528
     3  C   -0.000180  -0.012534   0.003019   0.003834
     4  C   -0.000547  -0.002639  -0.000057  -0.000366
     5  C    0.000028  -0.000357  -0.000002   0.000003
     6  H    0.000010  -0.000030  -0.000001  -0.000001
     7  C    0.000000  -0.000002  -0.000000  -0.000000
     8  C   -0.000000  -0.000001  -0.000000   0.000000
     9  N    0.000000  -0.000000   0.000000   0.000000
    10  C    0.000000   0.000000   0.000000   0.000000
    11  C   -0.000000  -0.000001   0.000000  -0.000000
    12  C    0.000000  -0.000220  -0.000001   0.000000
    13  C    0.000019   0.003683  -0.000020   0.000035
    14  H    0.000002   0.001834  -0.000026   0.000023
    15  C    0.000000  -0.000002  -0.000000   0.000000
    16  C    0.000000   0.000000  -0.000000   0.000000
    17  C    0.000000  -0.000000   0.000000  -0.000000
    18  N   -0.000000   0.000000  -0.000000  -0.000000
    19  C    0.000000   0.000000  -0.000000   0.000000
    20  C    0.000000   0.000000   0.000000  -0.000000
    21  N    0.000000  -0.000000   0.000000  -0.000000
    22  H    0.000000  -0.000000   0.000000  -0.000000
    23  H    0.000000   0.000000  -0.000000   0.000000
    24  H    0.000000   0.000000   0.000000  -0.000000
    25  H   -0.000000  -0.000000  -0.000000   0.000000
    26  H    0.000000  -0.000000  -0.000000   0.000000
    27  C   -0.000000   0.000000   0.000000  -0.000000
    28  C    0.000000  -0.000000  -0.000000   0.000000
    29  H   -0.000000  -0.000000  -0.000000   0.000000
    30  H   -0.000000   0.000000   0.000000  -0.000000
    31  H   -0.000000   0.000000   0.000000  -0.000000
    32  H   -0.000000   0.000000   0.000000  -0.000000
    33  H   -0.000000   0.000000   0.000000   0.000000
    34  N   -0.043774   0.005271   0.003863   0.004307
    35  C    0.367105   0.005021  -0.028989  -0.030097
    36  H   -0.043587  -0.000014   0.003595  -0.008511
    37  H    0.599316  -0.000259  -0.007881   0.004741
    38  H   -0.000259   0.396757   0.001596  -0.002690
    39  H   -0.007881   0.001596   0.578307  -0.043508
    40  H    0.004741  -0.002690  -0.043508   0.591860
 Mulliken charges:
               1
     1  C   -0.098521
     2  N   -0.659757
     3  C    0.309431
     4  C    0.089866
     5  C   -0.179459
     6  H    0.152292
     7  C   -0.116782
     8  C    0.279574
     9  N   -0.825089
    10  C    0.279564
    11  C   -0.020367
    12  C   -0.020376
    13  C   -0.153794
    14  H    0.160804
    15  C   -0.153798
    16  C    0.089899
    17  C    0.309450
    18  N   -0.659780
    19  C   -0.098517
    20  C   -0.176516
    21  N   -0.468196
    22  H    0.154992
    23  H    0.157420
    24  H    0.158135
    25  H    0.159397
    26  H    0.328332
    27  C   -0.179483
    28  C   -0.116776
    29  H    0.159755
    30  H    0.152297
    31  H    0.160790
    32  H    0.351891
    33  H    0.159756
    34  N   -0.468189
    35  C   -0.176521
    36  H    0.154992
    37  H    0.157421
    38  H    0.328327
    39  H    0.159398
    40  H    0.158138
 Sum of Mulliken charges =  -0.00000
 Mulliken charges with hydrogens summed into heavy atoms:
               1
     1  C    0.219015
     2  N   -0.331430
     3  C    0.309431
     4  C    0.089866
     5  C   -0.027167
     7  C    0.042973
     8  C    0.279574
     9  N   -0.473198
    10  C    0.279564
    11  C   -0.020367
    12  C   -0.020376
    13  C    0.007010
    15  C    0.006992
    16  C    0.089899
    17  C    0.309450
    18  N   -0.331448
    19  C    0.219016
    20  C    0.135897
    21  N   -0.468196
    27  C   -0.027186
    28  C    0.042978
    34  N   -0.468189
    35  C    0.135892
 Electronic spatial extent (au):  <R**2>=          10718.1267
 Charge=              0.0000 electrons
 Dipole moment (field-independent basis, Debye):
    X=             -0.0003    Y=             -2.1164    Z=              0.0004  Tot=              2.1164
 Quadrupole moment (field-independent basis, Debye-Ang):
   XX=           -158.0434   YY=            -92.3660   ZZ=           -136.6397
   XY=              0.0011   XZ=            -16.3110   YZ=              0.0008
 Traceless Quadrupole moment (field-independent basis, Debye-Ang):
   XX=            -29.0270   YY=             36.6504   ZZ=             -7.6234
   XY=              0.0011   XZ=            -16.3110   YZ=              0.0008
 Octapole moment (field-independent basis, Debye-Ang**2):
  XXX=             -0.0256  YYY=             50.0360  ZZZ=             -0.0029  XYY=              0.0001
  XXY=           -144.2753  XXZ=             -0.0183  XZZ=              0.0017  YZZ=            -19.9861
  YYZ=              0.0038  XYZ=             17.8075
 Hexadecapole moment (field-independent basis, Debye-Ang**3):
 XXXX=         -12025.1054 YYYY=          -2362.3595 ZZZZ=           -196.9172 XXXY=              0.0308
 XXXZ=           -368.2352 YYYX=              0.0051 YYYZ=              0.0179 ZZZX=            -20.9547
 ZZZY=              0.0058 XXYY=          -1898.3975 XXZZ=          -1959.9222 YYZZ=           -531.6812
 XXYZ=             -0.0102 YYXZ=            -46.0461 ZZXY=             -0.0018
 N-N= 1.713933306986D+03 E-N=-5.681682195811D+03  KE= 9.642972117795D+02
 No NMR shielding tensors so no spin-rotation constants.
 Leave Link  601 at Wed Apr  2 19:52:47 2025, MaxMem=  1048576000 cpu:               1.8 elap:               0.9
 (Enter /opt/rit/el9/20230413/app/linux-rhel9-x86_64_v3/gcc-11.2.1/gaussian-16-C.01-3yzt2xlc3n3d45c3wnnzh2wvb3eacy2v/g16/l9999.exe)
 Unable to Open any file for archive entry.
 1\1\GINC-NOVA18-WIDE-28\FOpt\RB3LYP\6-31G\C18H17N5\HGATES\02-Apr-2025\
 0\\#p B3LYP/6-31G SCRF=(PCM,Solvent=Water) Opt\\Geometry Optimization\
 \0,1\C,0.1715612583,0.0627780485,-0.3827533775\N,0.1884770109,0.288771
 0854,1.080386223\C,1.4636485115,0.0061219338,1.5642380772\C,1.82293681
 5,0.282998805,2.9659912824\C,3.1920733546,0.2859148172,3.3358534829\H,
 3.9280113416,0.0873821707,2.5660904777\C,3.5985745291,0.5381837072,4.6
 426194908\C,2.6063584394,0.7909782655,5.5989710325\N,2.7234208661,1.06
 79619107,6.958071254\C,1.457386718,1.2438723501,7.5092490528\C,0.48730
 342,1.074570391,6.4775705544\C,1.2221533107,0.7883528819,5.2553816074\
 C,0.8378375905,0.5304948007,3.9349345083\H,-0.2142164788,0.497140125,3
 .6725443986\C,-0.8727634366,1.2057428118,6.7788601864\C,-1.262240011,1
 .4972624782,8.0956206543\C,-2.6827611863,1.6448843274,8.4575665048\N,-
 3.6908992046,1.1962808504,7.6075814519\C,-4.9930288575,1.3265577117,8.
 3001056988\C,-4.5915686554,2.1823422598,9.5444594203\N,-3.0931238699,2
 .2134324579,9.5622409743\H,-4.972069303,1.7651141,10.4815183719\H,-4.9
 695178563,3.208314193,9.4614114524\H,-5.3864746693,0.342611179,8.58467
 61224\H,-5.7337937603,1.8243185818,7.6685645915\H,-3.5362798736,0.4481
 580497,6.9481366606\C,-0.2766407818,1.6661356297,9.1013141179\C,1.0817
 236961,1.542139261,8.825650381\H,1.8218371362,1.6707604403,9.607604664
 2\H,-0.6088975084,1.8945744467,10.1067855695\H,-1.6145140522,1.1079961
 178,5.9933490398\H,3.5917629554,1.1308240736,7.4654508326\H,4.65009813
 56,0.5402037103,4.9073043395\N,2.2844195284,-0.5324657386,0.6992493573
 \C,1.5385014522,-0.6643781351,-0.5941303579\H,2.1218628542,-0.23226359
 38,-1.4126090763\H,1.3938545946,-1.7283156325,-0.8165575481\H,-0.38940
 31177,1.0061198493,1.492618145\H,-0.6821125426,-0.5508873058,-0.682746
 1975\H,0.1212769882,1.0145358838,-0.9264039367\\Version=ES64L-G16RevC.
 01\State=1-A\HF=-969.674192\RMSD=4.756e-09\RMSF=2.028e-05\Dipole=-0.71
 75946,-0.0523057,-0.4190618\Quadrupole=15.2738313,-10.7822773,-4.49155
 4,9.236085,19.3482291,-11.0775938\PG=C01 [X(C18H17N5)]\\@
 The archive entry for this job was punched.


 LEARN FROM YESTERDAY,
 LIVE FOR TODAY,
 LOOK TO TOMORROW,
 REST THIS AFTERNOON.

           -- SNOOPY
 Job cpu time:       0 days  1 hours 48 minutes  5.5 seconds.
 Elapsed time:       0 days  0 hours 54 minutes 24.3 seconds.
 File lengths (MBytes):  RWF=    354 Int=      0 D2E=      0 Chk=     13 Scr=      2
 Normal termination of Gaussian 16 at Wed Apr  2 19:52:47 2025.
